/*--------------------------------*- C++ -*----------------------------------*\
  =========                 |
  \\      /  F ield         | OpenFOAM: The Open Source CFD Toolbox
   \\    /   O peration     | Website:  https://openfoam.org
    \\  /    A nd           | Version:  11
     \\/     M anipulation  |
\*---------------------------------------------------------------------------*/
FoamFile
{
    format      ascii;
    class       volScalarField;
    location    "0.0000399989";
    object      Ma;
}
// * * * * * * * * * * * * * * * * * * * * * * * * * * * * * * * * * * * * * //

dimensions      [0 0 0 0 0 0 0];

internalField   nonuniform List<scalar> 
900
(
0.676924530795011
0.694309767601867
0.713946883297673
0.670522149187494
0.691224891296889
0.712524877683044
0.659220265103551
0.684433358834339
0.708408763288203
0.676924533800435
0.694309767919481
0.713946884037738
0.670522151947932
0.691224892778082
0.712524879653594
0.659220265604105
0.684433358795534
0.708408763452295
0.676924530811621
0.69430976756752
0.713946883352993
0.670522149198949
0.691224891269402
0.712524877731789
0.659220265112411
0.684433358812098
0.708408763343966
0.676924530635486
0.694309768526554
0.71394688274243
0.670522149092668
0.691224892168547
0.712524877449303
0.659220264930722
0.684433359988603
0.708408762947669
0.676924533523464
0.694309774095226
0.713946892514484
0.670522151853484
0.691224897944065
0.712524886815883
0.659220265382835
0.684433361431681
0.708408765908867
0.676924530615225
0.694309768526396
0.713946882545439
0.670522149082203
0.69122489216646
0.712524877290809
0.659220264924518
0.684433360008837
0.708408762853364
0.73079737942353
0.742587349502523
0.746939027689292
0.730336182242473
0.742646193339384
0.747067549433705
0.728095238265506
0.741736578153567
0.747000193335895
0.730797381735608
0.742587362226197
0.746939032578018
0.730336185315132
0.742646196348452
0.747067554891327
0.728095238329507
0.741736586568511
0.747000201581629
0.730797379356591
0.742587349725075
0.74693902712408
0.73033618219105
0.742646193596925
0.747067548266334
0.728095238210816
0.741736578083395
0.747000191171163
0.730797381823863
0.74258736836412
0.746939115727178
0.730336185643582
0.742646202769479
0.747067616542772
0.728095238390541
0.74173658135551
0.747000207792475
0.73079739262125
0.742587352069946
0.746939036648109
0.730336191782529
0.742646190891141
0.747067563181208
0.72809524268997
0.741736578290501
0.747000217479236
0.730797381544052
0.742587369212337
0.746939123507563
0.730336185430621
0.742646203515709
0.74706762205139
0.728095238388063
0.741736581331505
0.747000207758318
0.750714950674382
0.750810015193392
0.750966185763947
0.750715022649761
0.750809893229347
0.750966016898841
0.750714947250311
0.750810009498286
0.750966177029725
0.750715221165619
0.750810003734066
0.750966030007923
0.750714980991732
0.750810069781229
0.750966282359949
0.75071523992932
0.750810014069273
0.750966030840658
0.757201546495178
0.757279864924466
0.757439766806916
0.757202293896102
0.757280487110856
0.757439955773771
0.757201542007183
0.757279853987945
0.757439760225067
0.757202430151202
0.757280444633101
0.757439788694715
0.75720155923984
0.757279969809905
0.757439862161056
0.75720244487103
0.75728044140392
0.757439772114024
0.773938159973909
0.773996725471545
0.774110003614243
0.773940918628483
0.773998961922266
0.774110270559438
0.773938163821175
0.773996726939925
0.774110000501188
0.77394111794787
0.773999062162305
0.774110240996723
0.773938125141633
0.773996733278183
0.774110078552594
0.773941129835431
0.773999065615571
0.774110235960054
0.811654520788128
0.811677268766356
0.811719140616852
0.811655876685511
0.81167647653858
0.811719128971577
0.811654519962112
0.811677266602908
0.81171914022266
0.811656038578615
0.811676569359476
0.811719155090529
0.811654614774803
0.811677376476188
0.811719179296172
0.811656044940486
0.811676571608977
0.811719155173809
0.898691543624754
0.898786326270667
0.898804463535071
0.89869020471244
0.898785116620697
0.89880529932336
0.898691541068128
0.898786323716798
0.898804465905261
0.898690310447576
0.898785163448741
0.898805376161817
0.898691578028319
0.898786363868077
0.898804458899905
0.898690312552964
0.898785163718658
0.898805386362903
0.956740101625999
0.95696344160428
0.957194512432804
0.956740719685886
0.956964407055223
0.957194877177789
0.956740102012125
0.956963442102252
0.957194515476785
0.956740724596484
0.956964338916961
0.957194853789711
0.956740105614199
0.956963446057741
0.957194437282481
0.956740724440559
0.956964335182622
0.957194852895805
0.959429752867738
0.95815825583556
0.95696171962703
0.959432933496496
0.958159937387006
0.956962608519008
0.959429756460743
0.958158259308064
0.956961722652681
0.95943306095788
0.958160012252292
0.956962521917609
0.959429669550483
0.958158182846461
0.956961643130123
0.959433064828681
0.958160014117786
0.956962518155872
0.971772115295911
0.97190850397663
0.966812844275395
0.971776480471319
0.971911059136126
0.966815782403665
0.971772127650114
0.971908510430772
0.966812838160415
0.971776936205486
0.971911397217241
0.966815559220831
0.971771786355782
0.971908333549502
0.966813021944501
0.971776952647147
0.971911409377058
0.966815549822683
0.639516525618367
0.622046834798932
0.605538561408631
0.63951653167923
0.622046837038062
0.60553856194659
0.63951652562621
0.622046834800656
0.605538561407275
0.63951652572068
0.622046834924698
0.605538561478447
0.639516531941252
0.622046837319979
0.605538562072909
0.639516525727761
0.622046834930087
0.605538561480217
0.0354327065726429
0.0159888525881231
0.00251753577064237
0.000100219176121308
7.34957774029936e-07
6.88850002736236e-10
7.16325687713697e-11
3.5236692900167e-11
3.10338857481506e-12
3.12701403264754e-14
5.14595287629863e-15
3.66158722670745e-15
5.68834109587672e-15
6.10477208582677e-15
2.17249738676998e-15
0.129047391315286
0.0763839508956343
0.0141603697463616
0.000503214798514419
2.41503554373883e-06
1.12144292550385e-09
2.32707259922841e-10
7.64029587783615e-11
4.16846438780388e-12
2.5673324628541e-14
3.23552091679133e-15
4.24245057627805e-15
5.58861042859502e-15
3.96200303253922e-15
6.78334907351324e-15
0.285067480022736
0.211263759629312
0.0486223037019368
0.00176178044589211
7.12283362715892e-06
2.26709408902357e-09
4.3056360504185e-10
1.35794520951413e-10
7.25583839314113e-12
4.09972862917297e-14
4.2243011527867e-15
5.5608688479585e-15
5.79233999074616e-15
5.13704813309968e-15
5.48526938628129e-15
0.734919482779106
0.410315474498667
0.103953629892825
0.00408616048982801
1.60319613499911e-05
4.52154097983046e-09
6.43734260971701e-10
2.13353377724656e-10
1.29110702050033e-11
7.8382716617579e-14
5.04613848477434e-15
5.14821638660671e-15
5.21425248232772e-15
5.1349649667256e-15
5.44940800166245e-15
0.0354332063295817
0.0159890257025799
0.00251753887185185
0.000100217799558419
7.34938529193494e-07
6.88835300816322e-10
7.16297238818894e-11
3.52282496105497e-11
3.10141705209757e-12
2.97017563609006e-14
1.4298749646032e-15
1.57888931999638e-15
1.5444317503307e-15
6.98314890038298e-16
3.43829806455446e-15
0.129047231433167
0.0763842739749552
0.0141605373062077
0.0005032226384531
2.41506245357622e-06
1.1214360716359e-09
2.32701663218281e-10
7.63988811385774e-11
4.16308267322438e-12
2.50494745559793e-14
7.86240730313695e-15
7.63835202683322e-15
8.20025508120753e-15
8.42028900895014e-15
9.74725432423082e-15
0.285063729304535
0.211262261301926
0.048622722046954
0.00176183742868623
7.12324542787872e-06
2.2672653847972e-09
4.30555942582556e-10
1.35790963563368e-10
7.25084139326982e-12
3.81062396503771e-14
1.42185550476755e-14
1.45841295871066e-14
1.3937802792551e-14
1.41793667040317e-14
9.96653209506872e-15
0.73491840350411
0.410309794029324
0.103952949630122
0.00408627377588807
1.60332345314667e-05
4.52229022661411e-09
6.43725169416505e-10
2.13347997871659e-10
1.29066924809178e-11
7.47423350593473e-14
1.63823680926405e-14
1.62641361339904e-14
1.50566616582758e-14
1.52627700136017e-14
1.16257415401596e-14
0.035432707029435
0.0159888526222823
0.00251753572921239
0.000100219173343531
7.34957762878129e-07
6.88851632261586e-10
7.1631987617266e-11
3.52365264828856e-11
3.10045592240452e-12
2.90972655367323e-14
4.19217391259077e-15
4.39480821010602e-15
6.47099289540392e-15
5.57031020678368e-15
2.57091597746457e-15
0.129047392415458
0.0763839517259549
0.0141603697767095
0.000503214789055084
2.41503543550158e-06
1.12144409963213e-09
2.32706781778633e-10
7.6402199988211e-11
4.16658076933275e-12
2.51478358744174e-14
3.7124496624642e-15
4.46157162067977e-15
4.88986336895238e-15
4.43900837833407e-15
7.97710490928827e-15
0.285067478212958
0.21126376061696
0.0486223044277543
0.0017617804631022
7.12283350769524e-06
2.26709459385886e-09
4.30563729906105e-10
1.35794834208314e-10
7.25457244880915e-12
4.01390491562763e-14
4.55102620282996e-15
5.00433661812423e-15
5.13679914265315e-15
3.51833433142e-15
5.11697929401267e-15
0.734919475467629
0.410315470326705
0.103953631380624
0.00408616066700702
1.60319620317868e-05
4.52154102880976e-09
6.43734536951751e-10
2.13353882032492e-10
1.29102042067039e-11
7.62509599610331e-14
5.66765717125477e-15
5.07727983082421e-15
5.28325343530398e-15
4.36901192916942e-15
5.43070445051978e-15
0.0354332501096788
0.0159890388983871
0.0025175387439122
0.000100217715592699
7.34937850548416e-07
6.88831906076786e-10
7.16322986562812e-11
3.52362511944991e-11
3.10148128671726e-12
2.86695007126958e-14
4.6449279187211e-15
4.23118311334569e-15
4.94803179068582e-15
5.70634948003898e-15
2.07874297025327e-15
0.129047297479574
0.0763843292040589
0.0141605460223253
0.00050322261116394
2.41505984260858e-06
1.1214323071812e-09
2.32707279289272e-10
7.64022908261222e-11
4.16707501855364e-12
2.43169724277736e-14
3.91483704871199e-15
4.19954947336392e-15
5.00768151318886e-15
4.04333430483369e-15
6.79161368151047e-15
0.285063641159535
0.211262288850382
0.0486227644228699
0.00176183957351055
7.12325068852902e-06
2.26726183250138e-09
4.30563153229333e-10
1.35794949087269e-10
7.25521985099046e-12
4.02914040714695e-14
4.6111855274089e-15
5.01951897668028e-15
5.28317022910735e-15
5.36783743886893e-15
6.28396709799772e-15
0.734918175852935
0.410309609591019
0.103953001395729
0.00408628249779189
1.60332841189515e-05
4.52230397927182e-09
6.43731250163834e-10
2.13353631465444e-10
1.29110320491947e-11
7.77815411950788e-14
5.15584198722313e-15
5.02863062389431e-15
4.91343616366352e-15
5.59313696534099e-15
5.39456370326578e-15
0.0354326807742253
0.015988845779573
0.00251753616254633
0.000100219243061347
7.3495822845976e-07
6.88853607822218e-10
7.16299082006215e-11
3.52280399781161e-11
3.09975386335332e-12
2.93744141350935e-14
4.87127320750779e-16
6.96120641360355e-16
8.9258730426992e-16
6.45070335180802e-16
3.2577419957902e-15
0.129047349232228
0.0763839169596234
0.014160365784
0.000503214928857139
2.41503800835574e-06
1.12144635637566e-09
2.32701992254214e-10
7.63988281437193e-11
4.16249724237956e-12
2.53359637000357e-14
9.90822013334107e-15
9.29969201838329e-15
8.10597758569607e-15
8.81880205089806e-15
9.88769778163304e-15
0.285067539384261
0.21126373103766
0.0486222781290387
0.00176177944966389
7.12283311825808e-06
2.26709867104452e-09
4.30558029268814e-10
1.35790609293767e-10
7.25090250790755e-12
3.80909764567739e-14
1.46685331312428e-14
1.56780023354991e-14
1.47035889540759e-14
1.51647153157698e-14
1.13778676774855e-14
0.73491969411496
0.410315612838747
0.10395358980694
0.00408615469337994
1.60319318753751e-05
4.52153491457681e-09
6.43728450125881e-10
2.13347767347245e-10
1.29068246078603e-11
7.43251586916122e-14
1.62385421573674e-14
1.65950016064816e-14
1.55399793147361e-14
1.62932623771158e-14
1.27767588905645e-14
0.0354332510830575
0.0159890391151715
0.00251753871018824
0.000100217712246455
7.34937830563653e-07
6.88832772687084e-10
7.16323105994823e-11
3.52366602050538e-11
3.10041181726799e-12
2.93839773548277e-14
5.97010577151955e-15
5.70322973677488e-15
6.31831423165053e-15
5.92750219919512e-15
3.18669687466879e-15
0.129047299176419
0.0763843306258112
0.01416054619391
0.000503222605034553
2.4150597331553e-06
1.12143330604203e-09
2.32707470971082e-10
7.64024968868317e-11
4.16664606195184e-12
2.53790656958719e-14
4.80148692381379e-15
5.43118847674584e-15
5.29320051293064e-15
4.1061645435924e-15
8.84822887793007e-15
0.285063638256687
0.211262289700973
0.0486227656936599
0.00176183962962867
7.12325074330329e-06
2.26726170121307e-09
4.30562718247454e-10
1.35794999899196e-10
7.25476863099914e-12
4.03160191538295e-14
5.15618526679413e-15
5.73317460409222e-15
5.69665998915474e-15
3.91264331406466e-15
4.92895455415326e-15
0.73491816716965
0.410309603777439
0.103953003400518
0.00408628278435846
1.60332855574076e-05
4.52230378691623e-09
6.43731952232336e-10
2.13353953442758e-10
1.29107358611903e-11
7.59773481075618e-14
5.95503301251357e-15
5.53157552087747e-15
5.68627373083037e-15
4.60448445951221e-15
5.82257955006272e-15
1.17485484644233
0.600388908952839
0.14205851262266
0.00614392413381401
2.65040060746653e-05
7.96908621060695e-09
8.01932801414456e-10
2.82572779721679e-10
1.96253263381425e-11
1.34092167003054e-13
5.18601372186223e-15
4.71422217875093e-15
4.94792700346224e-15
4.68763963776915e-15
5.91872303657372e-15
1.158833995687
0.722633167834437
0.185764136337967
0.00893890147352904
4.17278536726061e-05
1.36889421947334e-08
8.96664897047639e-10
3.26630004993089e-10
2.54705446766611e-11
1.93824419696357e-13
4.16430789794205e-15
3.90089460506721e-15
4.03374178885267e-15
4.43015952573788e-15
5.11169270790272e-15
1.12667301472548
0.775415282181281
0.216980495814475
0.0112057748802465
5.57479992118e-05
1.96436610971859e-08
9.47517877844975e-10
3.51445854623943e-10
2.94189988355087e-11
2.40996022844435e-13
2.37917577418287e-15
3.29719944152474e-15
3.73882871360432e-15
4.40520957656899e-15
4.65182865586525e-15
1.17487916202366
0.600388635712755
0.142055851788146
0.0061440171930305
2.65062582254146e-05
7.97040373015605e-09
8.01927917196176e-10
2.82569638217176e-10
1.96228747472558e-11
1.30795763079636e-13
1.15680549887013e-14
1.07784887189218e-14
1.16783752595097e-14
9.81533685989823e-15
9.08381834650169e-15
1.15885130491228
0.72263637572594
0.185762302889901
0.00893891317906544
4.17292579634469e-05
1.36902100149194e-08
8.96662905725145e-10
3.26627996197359e-10
2.54690334415975e-11
1.9213951258007e-13
8.57263497617771e-15
8.174937853885e-15
8.1707350041987e-15
7.41326856515469e-15
9.13246129919045e-15
1.12667820268251
0.775416019054875
0.216980155104548
0.0112057683387274
5.5747959427047e-05
1.96436697821087e-08
9.47518449766758e-10
3.51445815109072e-10
2.94191379655859e-11
2.40694056408988e-13
5.42663624594323e-15
5.7675080868166e-15
6.28349509812817e-15
6.7645256046718e-15
5.0394188917729e-15
1.17485486346845
0.600388901855294
0.142058512553651
0.00614392455611859
2.65040091857275e-05
7.96908632165424e-09
8.01932935413591e-10
2.82573330005256e-10
1.96250858337355e-11
1.32436056181417e-13
5.5979440477447e-15
4.60992956453625e-15
4.59780352261645e-15
3.65258064104595e-15
5.04373071306934e-15
1.1588340017556
0.722633162456519
0.185764134646925
0.00893890175790117
4.17278571209691e-05
1.36889433688685e-08
8.96665192240518e-10
3.26630133494039e-10
2.54709004268775e-11
1.93224876521016e-13
4.64785367381168e-15
3.75888083084101e-15
3.80612340706297e-15
3.34686726263259e-15
4.18698909924521e-15
1.12667300641829
0.775415277590528
0.216980494804429
0.0112057748740688
5.57479997939573e-05
1.96436614643998e-08
9.47517597842863e-10
3.51445673735952e-10
2.94189264202657e-11
2.4108089927247e-13
3.2976066858116e-15
3.03406659243938e-15
3.43831943682262e-15
3.79678403752346e-15
4.48848929941539e-15
1.17487983857233
0.600388429933932
0.142055839252912
0.00614403313312591
2.65063944299487e-05
7.97045222982338e-09
8.01930319262812e-10
2.82572642753386e-10
1.96255134797811e-11
1.33744053874006e-13
4.94175435245708e-15
4.66423554577963e-15
4.54279151395471e-15
4.64587409384368e-15
5.77939916985735e-15
1.15885160399917
0.722636255960824
0.185762258380514
0.00893892348530436
4.17293873737658e-05
1.36902840433769e-08
8.96664286532093e-10
3.26629763136352e-10
2.5470700195068e-11
1.9377414036392e-13
4.00987556547491e-15
3.8910284263644e-15
3.92606725132456e-15
3.94740419673694e-15
5.16353295404528e-15
1.12667817866635
0.775415943022446
0.216980145132685
0.011205771716291
5.57479854602414e-05
1.96436888036232e-08
9.47518256301738e-10
3.51445980636783e-10
2.94189392988854e-11
2.41083185584824e-13
2.67304865449422e-15
2.86474129853626e-15
3.17314884333127e-15
3.34254046420819e-15
4.48777088716234e-15
1.17485433478765
0.600389110123546
0.142058528139934
0.00614391160524602
2.65039001317638e-05
7.96905161369039e-09
8.01930773277331e-10
2.82569868901749e-10
1.96228676089524e-11
1.30553591217043e-13
1.16470883620336e-14
1.07634145115452e-14
1.1558887397273e-14
1.00166144162662e-14
9.80775949666891e-15
1.1588338095415
0.722633300579542
0.185764195043992
0.00893889323244895
4.17277381871051e-05
1.36888767280913e-08
8.9666351770435e-10
3.26628476388043e-10
2.5468867515319e-11
1.92041227923648e-13
8.89225579174698e-15
8.3821038783262e-15
8.43593242126672e-15
7.56170278825462e-15
9.65694296765759e-15
1.12667325968085
0.77541541912823
0.216980524565331
0.0112057749761992
5.57479777704632e-05
1.96436437172917e-08
9.47518473540267e-10
3.51446156288396e-10
2.9418969284838e-11
2.40748889407709e-13
6.04945032708163e-15
5.71102514688106e-15
6.17138512508808e-15
5.94315297802968e-15
5.44426211321603e-15
1.17487985984018
0.600388422294989
0.142055839558187
0.00614403370654839
2.65063988403266e-05
7.97045327459906e-09
8.01930581786708e-10
2.82573106546776e-10
1.96253838393906e-11
1.32229367714658e-13
5.67414534921844e-15
4.86237667924402e-15
4.79040324126171e-15
4.01237704780865e-15
6.17224734416358e-15
1.15885161178917
0.72263625092698
0.185762257585207
0.00893892388923312
4.17293917948655e-05
1.36902863366161e-08
8.96664635470195e-10
3.26629845420045e-10
2.5471141133807e-11
1.93017994648556e-13
4.61779579641196e-15
3.96921900570031e-15
4.00882108900716e-15
3.16609837096766e-15
5.17946328258989e-15
1.126678175856
0.775415939628907
0.216980145321938
0.0112057718705114
5.57479865852043e-05
1.96436895406241e-08
9.47518653781222e-10
3.51445758129009e-10
2.94188028474571e-11
2.41101186192501e-13
3.80525400075875e-15
2.97230309759739e-15
2.97577574093402e-15
2.9806793909624e-15
5.37893380638222e-15
)
;

boundaryField
{
    inlet
    {
        type            calculated;
        value           nonuniform List<scalar> 
24
(
0.634767186041806
0.634767191918923
0.634767186049239
0.634767186159748
0.634767192228042
0.634767186167112
0.634767186041806
0.617077591610053
0.600541373039927
0.634767191918923
0.617077594105504
0.600541373588243
0.634767186049239
0.617077591612414
0.600541373038447
0.634767186159748
0.61707759172988
0.600541373109189
0.634767192228042
0.61707759438756
0.600541373713259
0.634767186167112
0.617077591735906
0.600541373111583
)
;
    }
    outlet
    {
        type            calculated;
        value           nonuniform List<scalar> 
156
(
0.0354357723921381
0.0157522454048221
0.00241487292694542
9.22343967783818e-05
6.37593287176802e-07
4.12340570216638e-10
7.78614577222184e-12
9.50041282163703e-12
1.01556131447852e-12
1.07645104813059e-14
7.56998967048243e-16
1.36941332710197e-15
2.24864911300263e-15
1.7391992261407e-15
1.20332537332251e-15
0.0354362722167269
0.0157524147395516
0.00241487562924983
9.22331404722599e-05
6.37577097937227e-07
4.12328822954768e-10
7.78436659394863e-12
9.49866703373083e-12
1.01556706189071e-12
1.1761616953078e-14
4.78960491955e-16
5.36008670311281e-16
5.20321543309605e-16
1.71657660687192e-16
1.88054345014616e-15
0.0354357728491332
0.0157522454357492
0.00241487288656901
9.22343942098134e-05
6.37593276984015e-07
4.12340985171069e-10
7.78576878751231e-12
9.5007774926813e-12
1.01459683004096e-12
1.01409392109488e-14
1.17211837107716e-15
1.24600378306691e-15
1.15116611732086e-15
2.35675805115346e-15
1.62857279381094e-15
0.0354363160068871
0.0157524276487077
0.00241487548786566
9.22330637785393e-05
6.37576507522859e-07
4.12326353822354e-10
7.78616242381658e-12
9.50041724566876e-12
1.01469169139175e-12
1.02818416388011e-14
1.5565844292245e-15
1.97998878138882e-15
2.0211456357816e-15
1.56991873619698e-15
1.02758930623865e-15
0.0354357465863437
0.015752238778016
0.00241487332005725
9.22344585826021e-05
6.37593690819629e-07
4.12342731801542e-10
7.78438302407373e-12
9.49850237084783e-12
1.01499865516562e-12
1.18208940524897e-14
1.49258815988317e-16
1.8806439317698e-16
2.73131173478065e-16
1.744655894067e-16
1.65138942813475e-15
0.0354363169805445
0.015752427858901
0.00241487545483802
9.22330607123885e-05
6.37576490342224e-07
4.12326549389434e-10
7.78588297174749e-12
9.50069031111197e-12
1.01453802927021e-12
1.01722236304332e-14
2.08355905227302e-15
2.16960585944934e-15
1.27005389827269e-15
2.20925603248842e-15
2.05641748046083e-15
5.62564187164847e-16
2.48163064811451e-15
1.51866297706548e-15
1.73492841963546e-15
2.26478672276389e-15
1.96964687425877e-15
1.85536986518139e-15
4.9497757122792e-17
2.27815058060146e-15
2.29182335111052e-15
4.11418225747088e-15
3.32289746640242e-15
3.73314260882889e-15
1.93201033347426e-15
7.36434402955203e-16
3.22462016115692e-15
1.92955305028875e-15
2.04375354766555e-15
1.90626742446404e-15
1.60001275482892e-15
1.79183558417978e-15
5.57065212726141e-16
2.57604435653379e-15
2.05003711930764e-15
1.89190988091534e-15
2.45163921149814e-15
2.20153800592897e-15
1.89658630590321e-15
1.28877817838264e-17
2.42262658352185e-15
3.05532075601657e-15
4.90599039757679e-15
3.83223760852635e-15
4.32142381494637e-15
2.2879131709771e-15
1.34386497984422e-15
3.93441765241612e-15
2.06420390291877e-15
2.62325804032884e-15
2.71039169967025e-15
2.24343026975006e-15
2.36340383699741e-15
0.0177606991883163
0.0638883168317861
0.0891843391200624
0.0705245446015448
0.0177609515777406
0.0638883341773209
0.0891829460590593
0.0705232163619778
0.0177606994000859
0.0638883173176828
0.089184338282357
0.070524542401979
0.0177609731008031
0.0638883682751009
0.0891829074352054
0.0705231620145958
0.0177606866423494
0.0638882963950207
0.0891843660053194
0.0705246135861908
0.0177609735707196
0.0638883691111509
0.0891829061631606
0.0705231602949516
)
;
    }
    sides
    {
        type            calculated;
        value           nonuniform List<scalar> 
84
(
0.676924530795011
0.694309767601867
0.713946883297673
0.676924533800435
0.694309767919481
0.713946884037738
0.676924530811621
0.69430976756752
0.713946883352993
0.676924530635486
0.694309768526554
0.71394688274243
0.676924533523464
0.694309774095226
0.713946892514484
0.676924530615225
0.694309768526396
0.713946882545439
0.73079737942353
0.742587349502523
0.746939027689292
0.730797381735608
0.742587362226197
0.746939032578018
0.730797379356591
0.742587349725075
0.74693902712408
0.730797381823863
0.74258736836412
0.746939115727178
0.73079739262125
0.742587352069946
0.746939036648109
0.730797381544052
0.742587369212337
0.746939123507563
0.750714950674382
0.750715022649761
0.750714947250311
0.750715221165619
0.750714980991732
0.75071523992932
0.757201546495178
0.757202293896102
0.757201542007183
0.757202430151202
0.75720155923984
0.75720244487103
0.773938159973909
0.773940918628483
0.773938163821175
0.77394111794787
0.773938125141633
0.773941129835431
0.811654520788128
0.811655876685511
0.811654519962112
0.811656038578615
0.811654614774803
0.811656044940486
0.898691543624754
0.89869020471244
0.898691541068128
0.898690310447576
0.898691578028319
0.898690312552964
0.956740101625999
0.956740719685886
0.956740102012125
0.956740724596484
0.956740105614199
0.956740724440559
0.959429752867738
0.959432933496496
0.959429756460743
0.95943306095788
0.959429669550483
0.959433064828681
0.971772115295911
0.971776480471319
0.971772127650114
0.971776936205486
0.971771786355782
0.971776952647147
)
;
    }
}


// ************************************************************************* //
