/*--------------------------------*- C++ -*----------------------------------*\
  =========                 |
  \\      /  F ield         | OpenFOAM: The Open Source CFD Toolbox
   \\    /   O peration     | Website:  https://openfoam.org
    \\  /    A nd           | Version:  11
     \\/     M anipulation  |
\*---------------------------------------------------------------------------*/
FoamFile
{
    format      ascii;
    class       volScalarField;
    location    "0.0000399989";
    object      p;
}
// * * * * * * * * * * * * * * * * * * * * * * * * * * * * * * * * * * * * * //

dimensions      [1 -1 -2 0 0 0 0];

internalField   nonuniform List<scalar> 
900
(
623604.15159443
608244.881838285
591889.02314601
625034.526524333
609328.114518328
592829.780655853
625827.839862002
610305.70361411
593646.776268448
623604.151979116
608244.882707331
591889.024228817
625034.52832801
609328.116116628
592829.782566713
625827.838956168
610305.703230941
593646.775824119
623604.151604019
608244.881846603
591889.02315749
625034.526529629
609328.114528033
592829.78065945
625827.839867668
610305.703616491
593646.776244455
623604.151314361
608244.881356871
591889.023084358
625034.526456783
609328.113846984
592829.78131846
625827.839656074
610305.703125124
593646.775516836
623604.150671634
608244.879360742
591889.017862323
625034.527395745
609328.11368556
592829.777413824
625827.838625057
610305.701970806
593646.775025433
623604.151309989
608244.881376427
591889.023174653
625034.526453174
609328.113856448
592829.781403876
625827.839654292
610305.703127232
593646.775534345
576472.190220143
563188.390612518
554112.283069154
577349.134692312
563753.406144734
554411.182133577
577963.77228699
564069.244028245
554542.112881075
576472.188789494
563188.38459438
554112.281358686
577349.134905093
563753.397236589
554411.200891781
577963.772606704
564069.244309571
554542.118807526
576472.190171061
563188.390514174
554112.283627688
577349.134664488
563753.406224771
554411.182635437
577963.772269711
564069.244180496
554542.11379096
576472.187408745
563188.376728137
554112.227961939
577349.133592504
563753.394724427
554411.160389773
577963.770526701
564069.244565429
554542.106823524
576472.182156059
563188.390532489
554112.277658895
577349.128350555
563753.405166447
554411.177416454
577963.771004476
564069.244881069
554542.098979771
576472.187628719
563188.375923763
554112.223129151
577349.133717704
563753.394227893
554411.156437675
577963.770549027
564069.244453443
554542.106111703
545532.912708759
545686.601843994
545756.099544548
545532.902754709
545686.541054631
545756.142847046
545532.916099926
545686.604159784
545756.104432149
545532.763512715
545686.421885214
545756.116168779
545532.882284666
545686.581041322
545756.042477869
545532.750663938
545686.410891307
545756.113805904
537761.451376394
537835.612851489
537866.031636162
537761.004857204
537835.365865933
537865.953430752
537761.456271651
537835.615410727
537866.035049373
537760.947788247
537835.278176428
537866.008425096
537761.415004394
537835.601641576
537865.993831765
537760.941401849
537835.268556345
537866.013029868
530006.472019501
530042.318036797
530051.296344576
530004.435071083
530040.511238368
530051.291572323
530006.470706164
530042.314895123
530051.298870294
530004.312863663
530040.374975746
530051.31764163
530006.479384235
530042.351147745
530051.244255651
530004.306343121
530040.366389836
530051.321321298
520009.489012909
520019.011155582
520023.964980259
520008.845030111
520020.468739026
520024.118801598
520009.491792258
520019.012773385
520023.964491518
520008.749636143
520020.404529034
520024.108849815
520009.393990008
520018.941607982
520023.959039281
520008.746824284
520020.403103377
520024.11033859
518488.934010474
518610.230489359
518630.501923171
518488.59007551
518610.067821724
518630.445501377
518488.93569111
518610.231345424
518630.501678221
518488.532364172
518610.04879783
518630.440898477
518488.901245634
518610.207775066
518630.502700022
518488.530961202
518610.049654443
518630.441520984
481885.682532149
481601.675454339
481456.296290298
481886.432060272
481601.02395122
481456.184472825
481885.683248726
481601.675610223
481456.296326867
481886.438646533
481601.073445513
481456.195870783
481885.686153392
481601.684035057
481456.306932559
481886.438280373
481601.07516664
481456.196746523
454539.144031957
455001.161894209
455262.656799553
454538.711577035
455000.939079549
455263.149622213
454539.144258485
455001.161723201
455262.656048634
454538.64345397
455000.90234283
455263.171529775
454539.164039416
455001.18034221
455262.686815125
454538.640320162
455000.900348523
455263.172260928
414136.98026778
415962.700703466
418804.203484995
414138.986820104
415962.462666266
418803.878578168
414136.973481637
415962.697216416
418804.202382841
414138.590677551
415962.195315288
418803.830197695
414137.185419249
415962.804367087
418804.227331494
414138.574662148
415962.18482656
418803.82854308
655513.77270523
661389.405026304
662127.091046398
655513.771177745
661389.406484245
662127.090605931
655513.772702135
661389.405028883
662127.091045696
655513.772751928
661389.404965956
662127.091046126
655513.771291029
661389.406422881
662127.090589039
655513.772752306
661389.404966366
662127.091045428
103756.852334118
102357.781597979
101499.547082506
101332.584551405
101325.065536578
101325.00006205
101324.999981676
101324.999994299
101324.999999557
101324.999999995
101325
101325
101325
101324.999999999
101324.999999999
119800.702078369
111170.644172354
103086.98255259
101388.996707124
101325.314911378
101325.000102751
101324.999970728
101324.999990544
101324.999999439
101324.999999996
101325
101325
101325
101324.999999999
101325
140051.130488654
129014.349450303
107229.811246066
101549.01269761
101325.952186916
101325.000254667
101324.999955487
101324.999983474
101324.999999013
101324.999999994
101325
101325
101325
101324.999999999
101325
146056.708110863
155106.642032498
114829.907925118
101867.74849204
101327.214143227
101325.000569301
101324.999938892
101324.999973622
101324.999998235
101324.999999988
101325
101324.999999999
101324.999999999
101325
101325.000000001
103756.900628553
102357.798945134
101499.548051921
101332.584436175
101325.06553439
101325.000062047
101324.999981676
101324.999994298
101324.999999555
101324.999999994
101324.999999998
101324.999999998
101324.999999997
101324.999999998
101324.999999998
119800.724457868
111170.712733766
103087.008538184
101388.997905039
101325.314915542
101325.000102752
101324.999970727
101324.999990544
101324.999999438
101324.999999995
101324.999999998
101324.999999998
101324.999999998
101324.999999998
101324.999999999
140050.443393701
129014.132133359
107229.891722136
101549.021746327
101325.952250088
101325.000254678
101324.999955488
101324.999983474
101324.999999011
101324.999999992
101324.999999998
101324.999999997
101324.999999998
101324.999999998
101324.999999999
146054.267913933
155105.103512151
114829.793701509
101867.769834745
101327.214360294
101325.000569378
101324.999938894
101324.999973622
101324.999998234
101324.999999987
101324.999999999
101324.999999999
101324.999999999
101324.999999999
101324.999999999
103756.852393728
102357.781607963
101499.547079285
101332.58455112
101325.065536577
101325.00006205
101324.999981675
101324.999994299
101324.999999557
101324.999999995
101324.999999999
101325
101325
101324.999999999
101324.999999999
119800.702347434
111170.644320902
103086.982555745
101388.996705711
101325.314911362
101325.000102751
101324.999970727
101324.999990544
101324.999999439
101324.999999996
101324.999999999
101325
101324.999999999
101325
101325
140051.13029435
129014.349754647
107229.811373406
101549.01270039
101325.952186898
101325.000254667
101324.999955487
101324.999983474
101324.999999012
101324.999999994
101325
101325
101325
101325
101325
146056.7055456
155106.641277387
114829.908287381
101867.748520198
101327.214143328
101325.000569301
101324.999938892
101324.999973622
101324.999998235
101324.999999988
101324.999999999
101324.999999999
101324.999999999
101325
101325
103756.904607525
102357.800163996
101499.548056798
101332.584427644
101325.065534318
101325.000062047
101324.999981675
101324.999994299
101324.999999557
101324.999999995
101324.999999999
101324.999999999
101325
101324.999999999
101324.999999999
119800.73790057
111170.721594735
103087.009752434
101388.997901214
101325.314915158
101325.000102751
101324.999970728
101324.999990544
101324.999999439
101324.999999996
101325
101325
101325
101324.999999999
101325
140050.434748789
129014.141609015
107229.898344466
101549.022058539
101325.952250818
101325.000254677
101324.999955487
101324.999983474
101324.999999012
101324.999999994
101325
101325
101325
101324.999999999
101325
146054.175828935
155105.066748839
114829.805176543
101867.771175511
101327.214367699
101325.000569379
101324.999938893
101324.999973621
101324.999998235
101324.999999988
101325
101324.999999999
101324.999999999
101325
101325
103756.849646637
102357.780877839
101499.54710757
101332.584558243
101325.065536626
101325.00006205
101324.999981676
101324.999994298
101324.999999555
101324.999999993
101324.999999997
101324.999999997
101324.999999997
101324.999999998
101324.999999998
119800.691366406
111170.637940443
103086.981974491
101388.996726461
101325.314911744
101325.000102752
101324.999970727
101324.999990544
101324.999999438
101324.999999995
101324.999999998
101324.999999998
101324.999999998
101324.999999998
101324.999999999
140051.134981992
129014.339587848
107229.806686175
101549.012538846
101325.952186864
101325.000254667
101324.999955487
101324.999983474
101324.999999011
101324.999999992
101324.999999998
101324.999999998
101324.999999998
101324.999999998
101324.999999999
146056.78427557
155106.667367723
114829.897876803
101867.747548971
101327.214138682
101325.000569301
101324.999938893
101324.999973622
101324.999998235
101324.999999988
101324.999999999
101324.999999999
101324.999999999
101324.999999999
101324.999999999
103756.904705097
102357.800188657
101499.54805442
101332.584427303
101325.065534315
101325.000062047
101324.999981676
101324.999994299
101324.999999557
101324.999999995
101324.999999999
101324.999999999
101325
101325
101324.999999999
119800.73824396
111170.721821414
103087.009775445
101388.997900325
101325.314915142
101325.000102751
101324.999970727
101324.999990544
101324.999999439
101324.999999996
101324.999999999
101325
101324.999999999
101325
101325
140050.434401904
129014.141896714
107229.898542856
101549.022066655
101325.952250824
101325.000254677
101324.999955487
101324.999983474
101324.999999012
101324.999999993
101325
101324.999999999
101325
101325
101325
146054.17270575
155105.065608502
114829.805608152
101867.771218953
101327.21436791
101325.000569379
101324.999938893
101324.999973621
101324.999998235
101324.999999988
101324.999999999
101324.999999999
101324.999999999
101325
101325
211085.481571457
174300.186830446
120578.890727453
102156.719562918
101328.690701866
101325.001077237
101324.999930717
101324.999965196
101324.999997334
101324.99999998
101324.999999999
101324.999999999
101324.999999999
101324.999999999
101325
241726.19537294
184610.513943581
126008.377592304
102509.003312355
101330.687129611
101325.001840467
101324.999932739
101324.999960706
101324.999996609
101324.999999972
101324.999999999
101324.999999999
101324.999999999
101325
101325
263630.330155082
193626.967694048
129421.771581535
102783.708066901
101332.511217081
101325.002613847
101324.999932984
101324.999957846
101324.999996099
101324.999999966
101324.999999999
101324.999999999
101324.999999999
101324.999999999
101325
211077.511644446
174294.370208252
120578.048432268
102156.762124232
101328.69112464
101325.001077422
101324.999930718
101324.999965196
101324.999997335
101324.999999979
101324.999999999
101324.999999999
101324.999999999
101324.999999999
101324.999999999
241718.569917028
184605.675372065
126007.687392211
102509.01875199
101330.687630418
101325.00184087
101324.99993274
101324.999960706
101324.99999661
101324.999999972
101324.999999999
101324.999999999
101324.999999999
101324.999999999
101324.999999999
263630.164637327
193626.900747248
129421.786761796
102783.7091919
101332.511219802
101325.002613858
101324.999932985
101324.999957846
101324.999996099
101324.999999966
101324.999999999
101324.999999999
101324.999999999
101324.999999999
101325
211085.470888244
174300.181972865
120578.891276221
102156.7196913
101328.690702389
101325.001077237
101324.999930717
101324.999965196
101324.999997335
101324.99999998
101324.999999999
101324.999999999
101324.999999999
101324.999999999
101325
241726.187853175
184610.50910119
126008.377569007
102509.003410811
101330.687130578
101325.001840467
101324.999932739
101324.999960706
101324.999996609
101324.999999972
101324.999999999
101324.999999999
101324.999999999
101324.999999999
101325
263630.328794801
193626.966518551
129421.771270717
102783.708075091
101332.511217247
101325.002613847
101324.999932984
101324.999957846
101324.999996099
101324.999999966
101324.999999999
101324.999999999
101324.999999999
101325
101325
211077.087163132
174294.184966979
120578.058055577
102156.766331659
101328.691146503
101325.001077429
101324.999930717
101324.999965196
101324.999997334
101324.99999998
101324.999999999
101324.999999999
101324.999999999
101325
101325
241718.187757076
184605.479065316
126007.680177338
102509.021422275
101330.687662336
101325.001840888
101324.999932739
101324.999960706
101324.999996609
101324.999999972
101324.999999999
101324.999999999
101324.999999999
101325
101325
263629.893437762
193626.771750478
129421.781670506
102783.709561137
101332.511225176
101325.002613862
101324.999932984
101324.999957846
101324.999996099
101324.999999966
101324.999999999
101324.999999999
101324.999999999
101325
101325
211085.794217791
174300.340608742
120578.879540321
102156.715734567
101328.690683835
101325.001077232
101324.999930717
101324.999965196
101324.999997335
101324.99999998
101324.999999999
101324.999999999
101324.999999999
101324.999999999
101324.999999999
241726.414069644
184610.665240354
126008.382641645
102509.000422062
101330.687097079
101325.001840449
101324.999932739
101324.999960706
101324.99999661
101324.999999972
101324.999999999
101324.999999999
101324.999999999
101324.999999999
101324.999999999
263630.354135276
193626.989955157
129421.779577159
102783.707826229
101332.511211072
101325.002613842
101324.999932984
101324.999957846
101324.999996099
101324.999999966
101324.999999999
101324.999999999
101324.999999999
101324.999999999
101325
211077.072190612
174294.179159563
120578.058634477
102156.766479889
101328.691147202
101325.001077429
101324.999930717
101324.999965196
101324.999997335
101324.99999998
101324.999999999
101324.999999999
101324.999999999
101325
101325
241718.174522287
184605.472913962
126007.680178164
102509.021522315
101330.687663387
101325.001840889
101324.999932739
101324.999960706
101324.999996609
101324.999999972
101324.999999999
101324.999999999
101324.999999999
101324.999999999
101325
263629.884367795
193626.768106201
129421.781659133
102783.709579404
101332.511225385
101325.002613862
101324.999932984
101324.999957846
101324.999996099
101324.999999966
101324.999999999
101324.999999999
101324.999999999
101324.999999999
101325
)
;

boundaryField
{
    inlet
    {
        type            timeVaryingMappedFixedValue;
        fieldTable      p;
        value           nonuniform List<scalar> 
24
(
660249.027957433
660249.027957433
660249.027957433
660249.027957434
660249.027957433
660249.027957433
660249.027957433
660249.027957433
660249.027957433
660249.027957433
660249.027957433
660249.027957433
660249.027957433
660249.027957433
660249.027957433
660249.027957433
660249.027957433
660249.027957433
660249.027957433
660249.027957433
660249.027957433
660249.027957433
660249.027957434
660249.027957433
)
;
    }
    outlet
    {
        type            freestreamPressure;
        freestreamValue uniform 101325;
        supersonic      false;
        value           nonuniform List<scalar> 
156
(
101325.004036978
101340.3191678
101332.110341389
101325.603496355
101325.008660937
101325.000024513
101324.999983657
101324.999995834
101324.999999702
101324.999999997
101325
101325
101325
101324.999999999
101325
101325.004037434
101340.319503193
101332.110399157
101325.603486345
101325.008660602
101325.000024512
101324.999983656
101324.999995833
101324.9999997
101324.999999996
101324.999999998
101324.999999998
101324.999999998
101324.999999998
101324.999999999
101325.004036975
101340.319168127
101332.110341302
101325.603496333
101325.008660937
101325.000024513
101324.999983656
101324.999995833
101324.999999702
101324.999999997
101324.999999999
101325
101325
101324.999999999
101325
101325.004037368
101340.319527227
101332.110400657
101325.603485621
101325.008660592
101325.000024512
101324.999983656
101324.999995833
101324.999999702
101324.999999997
101325
101325
101325
101324.999999999
101325
101325.004037041
101340.319151812
101332.110341211
101325.603496884
101325.008660943
101325.000024513
101324.999983656
101324.999995833
101324.9999997
101324.999999996
101324.999999998
101324.999999998
101324.999999998
101324.999999998
101324.999999999
101325.004037365
101340.319527814
101332.110400608
101325.603485593
101325.008660592
101325.000024512
101324.999983656
101324.999995833
101324.999999702
101324.999999997
101325
101325
101325
101325
101325
101324.999999999
101325
101325
101325
101325
101325
101325
101324.999999998
101324.999999999
101324.999999999
101324.999999999
101324.999999999
101325
101325
101324.999999999
101325
101325
101325
101325
101325
101325
101324.999999999
101325
101325
101325
101325
101325
101325
101324.999999998
101324.999999999
101324.999999999
101325
101324.999999999
101325
101325
101324.999999999
101325
101325
101325
101325
101325
101325
102537.792906962
110877.916819434
128712.310899667
142198.896339047
102537.816846091
110877.91422801
128711.843827793
142196.724543916
102537.792937864
110877.916969962
128712.310796482
142198.894069149
102537.818858835
110877.921125801
128711.839087941
142196.641775742
102537.791540476
110877.911103969
128712.313007794
142198.963499799
102537.818908714
110877.921307661
128711.838886682
142196.638956168
)
;
    }
    sides
    {
        type            zeroGradient;
    }
}


// ************************************************************************* //
