/*--------------------------------*- C++ -*----------------------------------*\
  =========                 |
  \\      /  F ield         | OpenFOAM: The Open Source CFD Toolbox
   \\    /   O peration     | Website:  https://openfoam.org
    \\  /    A nd           | Version:  11
     \\/     M anipulation  |
\*---------------------------------------------------------------------------*/
FoamFile
{
    format      ascii;
    class       volScalarField;
    location    "0.0000399989";
    object      rho;
}
// * * * * * * * * * * * * * * * * * * * * * * * * * * * * * * * * * * * * * //

dimensions      [1 -3 0 0 0 0 0];

internalField   nonuniform List<scalar> 
900
(
1.40562026236352
1.41399413993886
1.42165201790326
1.41058827098824
1.41790989375193
1.42482775936723
1.41427296344094
1.4219741217678
1.42812839406375
1.40562026256711
1.41399414032535
1.42165201831296
1.41058827296291
1.41790989539021
1.424827761545
1.4142729614798
1.42197412076995
1.42812839304536
1.40562026237625
1.41399413994341
1.4216520179075
1.41058827099219
1.41790989375975
1.42482775935949
1.4142729634497
1.42197412177185
1.42812839402203
1.40562026181582
1.41399413904919
1.42165201776379
1.41058827082539
1.41790989254056
1.42482776043576
1.41427296306351
1.42197412091191
1.42812839265783
1.40562026003657
1.41399413443865
1.4216520066387
1.41058827122995
1.41790989112044
1.42482775226364
1.41427296086454
1.42197411851861
1.42812839157469
1.40562026180355
1.41399413907206
1.42165201791222
1.41058827081088
1.41790989254211
1.42482776056784
1.41427296305177
1.4219741209042
1.42812839267292
1.43989165716588
1.47242952903834
1.52058200324195
1.44230714697612
1.47386891113823
1.5213294407506
1.44454429310813
1.47501214630397
1.52181740759919
1.43989165244093
1.47242951347574
1.52058199472346
1.44230714568294
1.47386889179048
1.52132947737596
1.44454429350184
1.47501214712074
1.52181741914717
1.43989165705463
1.47242952880632
1.52058200428263
1.442307146901
1.47386891126659
1.52132944183619
1.44454429307827
1.47501214662056
1.5218174095468
1.43989165182857
1.47242949970065
1.52058188322814
1.44230714466921
1.47386888817431
1.52132939732363
1.44454428963158
1.47501214824045
1.52181739996158
1.43989163915894
1.47242952467167
1.52058198810916
1.44230713332557
1.47386890610048
1.5213294261151
1.44454429065446
1.47501214702696
1.52181737646909
1.43989165220641
1.47242949801535
1.5205818727693
1.44230714485495
1.47386888711222
1.52132938920258
1.44454428965932
1.47501214801293
1.52181739892382
1.5837060103088
1.58409023758746
1.58432483067727
1.58370598111632
1.58409011863991
1.58432493704069
1.58370601766605
1.58409024309635
1.58432484165278
1.58370566118509
1.58408986392849
1.58432489692841
1.58370593937549
1.58409018176002
1.58432469958838
1.58370563111027
1.58408983991961
1.58432489327418
1.67705713744581
1.67723437753789
1.67731129897414
1.67705601711841
1.67723376136059
1.67731111780717
1.67705714973567
1.67723438465949
1.67731130710537
1.67705585066056
1.67723354948566
1.67731125538317
1.6770570364698
1.67723433179759
1.67731120370231
1.67705583137278
1.67723352564889
1.67731126720303
1.83667646130336
1.83673643485302
1.83670651894619
1.8366709465691
1.83673133599107
1.83670612176882
1.83667645950281
1.83673642862291
1.83670652611475
1.83667056611792
1.83673094032996
1.836706158002
1.83667643182712
1.8367364712485
1.83670636275587
1.83667054172019
1.83673091373355
1.83670616594827
2.12456771866908
2.12453812420512
2.12446599479906
2.12456525121796
2.12454191658103
2.1244662557315
2.12456772999563
2.12453813212925
2.12446599557016
2.12456483116233
2.12454161003257
2.12446617198491
2.12456728505553
2.12453778798319
2.12446593087936
2.12456481007905
2.12454159568387
2.12446617298319
2.66796548307514
2.66831757348599
2.66819528698331
2.66796499542984
2.66831765772359
2.66819502020038
2.6679654927573
2.66831758000726
2.66819528881381
2.66796460146467
2.66831743750835
2.66819491994621
2.66796515431976
2.66831732749811
2.66819522668538
2.66796458166649
2.6683174287171
2.66819491626276
3.16500119835026
3.1637654409719
3.16350737356364
3.16500734568595
3.16376450800908
3.16350705636114
3.16500120203401
3.16376544165565
3.16350737382695
3.16500735631207
3.16376471467889
3.16350703181937
3.16500110160045
3.16376539278259
3.163507418424
3.16500734936072
3.1637647177805
3.16350703211048
3.23994908361441
3.24224683941221
3.24431268671494
3.23995097574024
3.24224790342098
3.24431486929861
3.23994907959075
3.24224683472726
3.24431268334591
3.2399505312197
3.24224762002686
3.24431492206584
3.23994925998407
3.24224698537929
3.24431281215456
3.23995050883473
3.24224760416271
3.24431492334378
3.09766676921803
3.10915840810921
3.12495617122418
3.09768144529721
3.10916016994567
3.12495389750526
3.09766673082132
3.1091583898631
3.12495616557259
3.09767933722394
3.10915882268566
3.12495362058718
3.09766789315589
3.10915893613949
3.12495629865404
3.09767925037528
3.10915876851813
3.12495361089084
1.42019150016663
1.4346460489946
1.43705800830089
1.42019149751651
1.43464605080324
1.43705800726973
1.4201915001616
1.43464604899698
1.43705800830006
1.42019150018993
1.43464604888806
1.43705800830019
1.42019149752891
1.43464605065833
1.43705800723439
1.42019150018916
1.43464604888559
1.43705800829543
1.1557484043639
1.14542666477455
1.1392212377363
1.13801649546798
1.13796269920166
1.13796222707592
1.13796222645988
1.13796222656692
1.13796222661092
1.13796222661445
1.13796222661448
1.13796222661448
1.13796222661448
1.13796222661448
1.13796222661448
1.27866064415242
1.21330816137325
1.15181895602139
1.13847550543781
1.13796477758726
1.13796222744619
1.13796222639034
1.13796222654148
1.13796222661008
1.13796222661445
1.13796222661448
1.13796222661449
1.13796222661449
1.13796222661448
1.13796222661448
1.38572082434806
1.32478520489497
1.18185432627151
1.13973268303559
1.13796992518774
1.13796222867936
1.13796222626697
1.1379622264847
1.13796222660668
1.13796222661443
1.13796222661448
1.13796222661448
1.13796222661448
1.13796222661448
1.13796222661448
1.34584411652296
1.45892911238102
1.23129727975512
1.14214014478723
1.13798008256558
1.13796223124535
1.1379622261313
1.13796222640564
1.1379622266005
1.13796222661438
1.13796222661448
1.13796222661447
1.13796222661447
1.13796222661447
1.13796222661448
1.15574878487321
1.14542679316952
1.13922124497343
1.13801649461279
1.1379626991848
1.13796222707592
1.13796222645991
1.13796222656693
1.13796222661093
1.13796222661446
1.13796222661449
1.13796222661449
1.13796222661449
1.13796222661449
1.13796222661449
1.27866100600995
1.21330869712532
1.1518191518369
1.13847551469928
1.13796477762002
1.13796222744621
1.13796222639036
1.13796222654151
1.1379622266101
1.13796222661447
1.13796222661449
1.13796222661449
1.13796222661449
1.13796222661449
1.13796222661449
1.38571658597434
1.32478404310747
1.18185494676043
1.13973275434137
1.13796992569894
1.13796222867946
1.13796222626699
1.13796222648472
1.1379622266067
1.13796222661444
1.13796222661448
1.13796222661448
1.13796222661448
1.13796222661448
1.13796222661449
1.34582877941605
1.4589205853311
1.23129660975709
1.14214031292447
1.13798008432122
1.13796223124599
1.13796222613132
1.13796222640564
1.1379622266005
1.13796222661438
1.13796222661447
1.13796222661447
1.13796222661447
1.13796222661447
1.13796222661447
1.15574840481426
1.14542666484975
1.13922123771302
1.13801649546584
1.13796269920165
1.13796222707592
1.13796222645988
1.13796222656692
1.13796222661092
1.13796222661445
1.13796222661448
1.13796222661448
1.13796222661448
1.13796222661448
1.13796222661448
1.27866064601254
1.21330816238012
1.15181895603068
1.13847550542642
1.13796477758714
1.13796222744618
1.13796222639033
1.13796222654148
1.13796222661008
1.13796222661445
1.13796222661448
1.13796222661448
1.13796222661448
1.13796222661448
1.13796222661449
1.3857208226598
1.32478520662755
1.18185432710821
1.13973268305473
1.13796992518759
1.13796222867936
1.13796222626697
1.1379622264847
1.13796222660668
1.13796222661443
1.13796222661448
1.13796222661448
1.13796222661448
1.13796222661448
1.13796222661448
1.3458441006134
1.45892910781345
1.23129728203429
1.14214014499509
1.13798008256637
1.13796223124536
1.1379622261313
1.13796222640564
1.1379622266005
1.13796222661438
1.13796222661447
1.13796222661447
1.13796222661447
1.13796222661447
1.13796222661447
1.15574881474787
1.14542680214192
1.13922124501298
1.13801649454848
1.13796269918424
1.1379622270759
1.13796222645988
1.13796222656692
1.13796222661092
1.13796222661445
1.13796222661448
1.13796222661448
1.13796222661448
1.13796222661448
1.13796222661448
1.27866110416492
1.21330876129542
1.15181916080136
1.1384755146599
1.13796477761693
1.13796222744618
1.13796222639033
1.13796222654148
1.13796222661008
1.13796222661445
1.13796222661448
1.13796222661449
1.13796222661449
1.13796222661448
1.13796222661448
1.38571651704921
1.3247841002968
1.18185499345865
1.13973275673274
1.13796992570476
1.13796222867944
1.13796222626697
1.1379622264847
1.13796222660668
1.13796222661443
1.13796222661448
1.13796222661448
1.13796222661448
1.13796222661448
1.13796222661448
1.34582824650596
1.4589203774602
1.23129668478254
1.14214032308231
1.13798008438042
1.137962231246
1.13796222613131
1.13796222640563
1.13796222660049
1.13796222661438
1.13796222661448
1.13796222661447
1.13796222661447
1.13796222661447
1.13796222661448
1.15574838426075
1.14542665950882
1.13922123791744
1.13801649551934
1.13796269920203
1.13796222707594
1.13796222645991
1.13796222656693
1.13796222661093
1.13796222661446
1.13796222661449
1.13796222661449
1.13796222661449
1.13796222661449
1.13796222661449
1.27866056736007
1.21330811735429
1.15181895198027
1.13847550559799
1.13796477759021
1.13796222744621
1.13796222639036
1.13796222654151
1.1379622266101
1.13796222661447
1.13796222661449
1.13796222661449
1.13796222661449
1.13796222661449
1.13796222661449
1.38572086556704
1.32478514651045
1.18185429539372
1.13973268186415
1.13796992518738
1.13796222867938
1.13796222626699
1.13796222648472
1.1379622266067
1.13796222661444
1.13796222661448
1.13796222661448
1.13796222661448
1.13796222661448
1.13796222661449
1.34584459386373
1.4589292645733
1.23129721543019
1.14214013773627
1.13798008252949
1.13796223124536
1.13796222613131
1.13796222640564
1.1379622266005
1.13796222661438
1.13796222661447
1.13796222661447
1.13796222661447
1.13796222661447
1.13796222661447
1.15574881548469
1.14542680232538
1.13922124499577
1.13801649454593
1.13796269918423
1.1379622270759
1.13796222645988
1.13796222656691
1.13796222661092
1.13796222661445
1.13796222661448
1.13796222661448
1.13796222661448
1.13796222661448
1.13796222661448
1.27866110661082
1.21330876290216
1.15181916096398
1.13847551465257
1.1379647776168
1.13796222744618
1.13796222639033
1.13796222654148
1.13796222661008
1.13796222661445
1.13796222661448
1.13796222661448
1.13796222661448
1.13796222661448
1.13796222661449
1.38571651439125
1.32478410199526
1.18185499484125
1.13973275679421
1.13796992570481
1.13796222867944
1.13796222626697
1.1379622264847
1.13796222660668
1.13796222661443
1.13796222661448
1.13796222661448
1.13796222661448
1.13796222661448
1.13796222661448
1.34582822882015
1.45892037104348
1.23129668757276
1.14214032340951
1.1379800843821
1.137962231246
1.13796222613131
1.13796222640563
1.13796222660049
1.13796222661438
1.13796222661447
1.13796222661447
1.13796222661447
1.13796222661447
1.13796222661447
1.82488861366948
1.57253517615269
1.26281404930066
1.14401851231405
1.13799132249892
1.1379622353721
1.1379622260653
1.13796222633869
1.13796222659337
1.13796222661432
1.13796222661448
1.13796222661448
1.13796222661448
1.13796222661447
1.13796222661447
2.0938713363553
1.64972810427725
1.29165456170688
1.14612102935342
1.13800569067817
1.1379622414868
1.13796222608164
1.13796222630327
1.13796222658763
1.13796222661426
1.13796222661448
1.13796222661447
1.13796222661447
1.13796222661448
1.13796222661448
2.25314659655984
1.71546470581307
1.30979610248931
1.1476970583261
1.13801842200327
1.13796224762311
1.1379622260838
1.13796222628072
1.13796222658359
1.1379622266142
1.13796222661447
1.13796222661447
1.13796222661447
1.13796222661447
1.13796222661447
1.82483876301389
1.57249946597953
1.26280859033165
1.14401885508108
1.1379913259158
1.13796223537362
1.13796222606531
1.13796222633868
1.13796222659336
1.13796222661432
1.13796222661447
1.13796222661447
1.13796222661447
1.13796222661447
1.13796222661447
2.09383169173457
1.64969927119706
1.29165006233072
1.14612114749586
1.13800569464531
1.13796224149007
1.13796222608164
1.13796222630327
1.13796222658763
1.13796222661426
1.13796222661447
1.13796222661447
1.13796222661447
1.13796222661447
1.13796222661448
2.2531500516992
1.71546465407463
1.30979623099178
1.14769706472384
1.13801842200892
1.1379622476232
1.1379622260838
1.13796222628072
1.13796222658359
1.13796222661421
1.13796222661447
1.13796222661447
1.13796222661447
1.13796222661447
1.13796222661448
1.82488854388277
1.57253514574703
1.26281405332467
1.14401851329157
1.13799132250303
1.1379622353721
1.1379622260653
1.13796222633869
1.13796222659337
1.13796222661432
1.13796222661447
1.13796222661448
1.13796222661448
1.13796222661448
1.13796222661448
2.09387129277282
1.64972807410829
1.29165456164433
1.14612103007424
1.13800569068571
1.13796224148681
1.13796222608164
1.13796222630328
1.13796222658763
1.13796222661426
1.13796222661447
1.13796222661448
1.13796222661448
1.13796222661448
1.13796222661448
2.25314659093355
1.71546469853727
1.30979610045279
1.1476970583838
1.13801842200452
1.13796224762311
1.1379622260838
1.13796222628072
1.13796222658359
1.1379622266142
1.13796222661447
1.13796222661447
1.13796222661447
1.13796222661447
1.13796222661448
1.82483617028459
1.57249834376242
1.26280866323983
1.14401888718678
1.13799132608894
1.13796223537367
1.13796222606531
1.13796222633869
1.13796222659336
1.13796222661432
1.13796222661448
1.13796222661448
1.13796222661448
1.13796222661448
1.13796222661448
2.09382955672028
1.64969808882648
1.29165001220815
1.14612116672227
1.13800569489438
1.13796224149023
1.13796222608164
1.13796222630327
1.13796222658763
1.13796222661426
1.13796222661448
1.13796222661447
1.13796222661448
1.13796222661448
1.13796222661448
2.25314855810698
1.71546387508319
1.30979619246789
1.14769706655161
1.13801842204844
1.13796224762323
1.1379622260838
1.13796222628072
1.13796222658359
1.1379622266142
1.13796222661447
1.13796222661447
1.13796222661447
1.13796222661447
1.13796222661448
1.82489065704119
1.57253614225626
1.26281396338322
1.14401848300621
1.13799132235644
1.13796223537206
1.1379622260653
1.13796222633869
1.13796222659336
1.13796222661432
1.13796222661447
1.13796222661447
1.13796222661447
1.13796222661447
1.13796222661447
2.0938726003444
1.64972904897788
1.29165459108804
1.14612100802339
1.13800569042384
1.13796224148666
1.13796222608164
1.13796222630327
1.13796222658763
1.13796222661426
1.13796222661447
1.13796222661447
1.13796222661447
1.13796222661447
1.13796222661448
2.25314666155381
1.71546484486674
1.30979615503441
1.14769705662708
1.13801842195748
1.13796224762307
1.1379622260838
1.13796222628072
1.13796222658359
1.1379622266142
1.13796222661447
1.13796222661447
1.13796222661447
1.13796222661447
1.13796222661448
1.82483607899189
1.57249830868141
1.26280866736783
1.14401888831248
1.13799132609446
1.13796223537367
1.13796222606531
1.13796222633869
1.13796222659337
1.13796222661432
1.13796222661448
1.13796222661448
1.13796222661448
1.13796222661448
1.13796222661448
2.09382948271573
1.64969805183073
1.29165001202287
1.14612116743709
1.13800569490255
1.13796224149023
1.13796222608164
1.13796222630327
1.13796222658763
1.13796222661426
1.13796222661447
1.13796222661447
1.13796222661448
1.13796222661448
1.13796222661448
2.25314850828386
1.71546385309973
1.30979619209905
1.14769706665024
1.13801842204999
1.13796224762323
1.1379622260838
1.13796222628072
1.13796222658359
1.1379622266142
1.13796222661447
1.13796222661447
1.13796222661447
1.13796222661447
1.13796222661448
)
;

boundaryField
{
    inlet
    {
        type            calculated;
        value           nonuniform List<scalar> 
24
(
1.40796943239128
1.40796943239128
1.40796943239128
1.40796943239128
1.40796943239128
1.40796943239128
1.40796943239128
1.40796943239128
1.40796943239128
1.40796943239128
1.40796943239128
1.40796943239128
1.40796943239128
1.40796943239128
1.40796943239128
1.40796943239128
1.40796943239128
1.40796943239128
1.40796943239128
1.40796943239128
1.40796943239128
1.40796943239128
1.40796943239128
1.40796943239128
)
;
    }
    outlet
    {
        type            calculated;
        value           nonuniform List<scalar> 
156
(
1.12885969017666
1.13413740676624
1.13736106222198
1.13793904378511
1.13796206897685
1.13796222666546
1.13796222643093
1.13796222656769
1.13796222661113
1.13796222661445
1.13796222661448
1.13796222661448
1.13796222661448
1.13796222661448
1.13796222661449
1.12885953825577
1.13413734744974
1.13736105965441
1.13793904411483
1.13796206898057
1.13796222666547
1.13796222643093
1.13796222656768
1.13796222661112
1.13796222661444
1.13796222661446
1.13796222661446
1.13796222661446
1.1379622266145
1.1379622266145
1.12885968997576
1.13413740673686
1.13736106223378
1.13793904378589
1.13796206897685
1.13796222666546
1.13796222643093
1.13796222656769
1.13796222661113
1.13796222661445
1.13796222661448
1.13796222661448
1.13796222661448
1.13796222661448
1.13796222661449
1.12885952448037
1.13413734327682
1.13736105967177
1.1379390441373
1.13796206898069
1.13796222666546
1.13796222643093
1.13796222656769
1.13796222661113
1.13796222661445
1.13796222661448
1.13796222661448
1.13796222661448
1.13796222661448
1.13796222661449
1.12885969951169
1.13413740922963
1.13736106211346
1.13793904376646
1.13796206897676
1.13796222666547
1.13796222643093
1.13796222656768
1.13796222661112
1.13796222661444
1.1379622266145
1.13796222661449
1.13796222661446
1.1379622266145
1.1379622266145
1.1288595241481
1.13413734319657
1.13736105968088
1.13793904413821
1.1379620689807
1.13796222666546
1.13796222643093
1.13796222656769
1.13796222661113
1.13796222661445
1.13796222661448
1.13796222661448
1.13796222661448
1.13796222661448
1.13796222661449
1.13796222661447
1.13796222661448
1.13796222661448
1.13796222661449
1.13796222661448
1.13796222661448
1.13796222661448
1.13796222661449
1.13796222661447
1.13796222661447
1.13796222661448
1.13796222661447
1.13796222661448
1.13796222661448
1.13796222661447
1.13796222661448
1.13796222661448
1.13796222661448
1.13796222661448
1.13796222661448
1.13796222661448
1.13796222661447
1.13796222661448
1.13796222661448
1.13796222661449
1.13796222661448
1.13796222661448
1.13796222661448
1.13796222661449
1.13796222661447
1.13796222661447
1.13796222661448
1.13796222661447
1.13796222661448
1.13796222661448
1.13796222661447
1.13796222661448
1.13796222661448
1.13796222661448
1.13796222661448
1.13796222661448
1.13796222661448
1.14237134488649
1.24524925838854
1.44554402076566
1.59700935307282
1.14237145784735
1.24524922928474
1.44553877516832
1.5969849620457
1.14237134502749
1.24524926007909
1.44554401960681
1.59700932758002
1.14237146633176
1.24524930675255
1.44553872193594
1.59698403249174
1.14237133910855
1.24524919419921
1.44554404444164
1.59701010734274
1.14237146655124
1.24524930879497
1.44553871967562
1.59698400082562
)
;
    }
    sides
    {
        type            calculated;
        value           nonuniform List<scalar> 
84
(
1.40562026236352
1.41399413993886
1.42165201790326
1.40562026256711
1.41399414032535
1.42165201831296
1.40562026237625
1.41399413994341
1.4216520179075
1.40562026181582
1.41399413904919
1.42165201776379
1.40562026003657
1.41399413443865
1.4216520066387
1.40562026180355
1.41399413907206
1.42165201791222
1.43989165716588
1.47242952903834
1.52058200324195
1.43989165244093
1.47242951347574
1.52058199472346
1.43989165705463
1.47242952880632
1.52058200428263
1.43989165182857
1.47242949970065
1.52058188322814
1.43989163915894
1.47242952467167
1.52058198810916
1.43989165220641
1.47242949801535
1.5205818727693
1.5837060103088
1.58370598111632
1.58370601766605
1.58370566118509
1.58370593937549
1.58370563111027
1.67705713744581
1.67705601711841
1.67705714973567
1.67705585066056
1.6770570364698
1.67705583137278
1.83667646130336
1.8366709465691
1.83667645950281
1.83667056611792
1.83667643182712
1.83667054172019
2.12456771866908
2.12456525121796
2.12456772999563
2.12456483116233
2.12456728505553
2.12456481007905
2.66796548307514
2.66796499542984
2.6679654927573
2.66796460146467
2.66796515431976
2.66796458166649
3.16500119835026
3.16500734568595
3.16500120203401
3.16500735631207
3.16500110160045
3.16500734936072
3.23994908361441
3.23995097574024
3.23994907959075
3.2399505312197
3.23994925998407
3.23995050883473
3.09766676921803
3.09768144529721
3.09766673082132
3.09767933722394
3.09766789315589
3.09767925037528
)
;
    }
}


// ************************************************************************* //
