/*--------------------------------*- C++ -*----------------------------------*\
  =========                 |
  \\      /  F ield         | OpenFOAM: The Open Source CFD Toolbox
   \\    /   O peration     | Website:  https://openfoam.org
    \\  /    A nd           | Version:  11
     \\/     M anipulation  |
\*---------------------------------------------------------------------------*/
FoamFile
{
    format      ascii;
    class       volScalarField;
    location    "0.0000399989";
    object      T;
}
// * * * * * * * * * * * * * * * * * * * * * * * * * * * * * * * * * * * * * //

dimensions      [0 0 0 1 0 0 0];

internalField   nonuniform List<scalar> 
900
(
1494.7669178793
1449.3168528381
1402.74738808986
1492.9189424173
1447.88834699052
1401.84543958616
1490.91927129614
1446.06636446729
1400.53300718837
1494.76691858489
1449.31685451271
1402.7473902518
1492.91894463553
1447.88834911549
1401.84544196207
1490.91927120558
1446.06636457416
1400.53300713882
1494.76691788874
1449.31685285326
1402.74738811287
1492.91894242578
1447.88834700559
1401.84543960228
1490.91927130041
1446.06636446881
1400.53300717267
1494.76691779041
1449.31685260289
1402.74738808135
1492.91894242831
1447.88834663225
1401.84544010172
1490.91927120344
1446.06636417907
1400.53300679392
1494.76691814191
1449.31685257226
1402.74738668255
1492.91894424288
1447.88834769882
1401.84543890885
1490.91927106537
1446.06636387786
1400.53300669681
1494.76691779298
1449.31685262604
1402.74738814889
1492.91894243505
1447.88834665316
1401.84544017375
1490.91927121157
1446.0663641919
1400.53300682043
1348.90397509485
1288.69951188118
1227.77961906934
1348.6934625588
1288.73258422003
1227.8383672901
1348.03833538817
1288.45516992538
1227.73453961865
1348.90397617361
1288.69951173105
1227.77962215753
1348.6934642651
1288.73258077356
1227.83837927366
1348.03833576646
1288.45516985452
1227.73454342318
1348.90397508422
1288.69951185921
1227.77961946663
1348.69346256405
1288.73258429075
1227.8383675254
1348.03833537573
1288.4551699966
1227.73454006185
1348.90397351642
1288.69950578757
1227.77959386902
1348.69346214681
1288.73257819273
1227.83835418387
1348.03833452678
1288.45516946086
1227.73453236915
1348.90397309453
1288.69951551985
1227.77961930033
1348.69346050894
1288.73258638863
1227.83836865528
1348.03833468659
1288.45517124186
1227.73453395608
1348.90397367718
1288.699505422
1227.77959160561
1348.69346226559
1288.73257798634
1227.83835198563
1348.03833455296
1288.45516940381
1227.73453163042
1160.59015181009
1160.63553169392
1160.6114694873
1160.5901520266
1160.63548955019
1160.61148365743
1160.59015363298
1160.63553258316
1160.61147184113
1160.59009025297
1160.63542270818
1160.61145630772
1160.59013906676
1160.63552835195
1160.61144415897
1160.59008495772
1160.63541691583
1160.61145395974
1080.3744294075
1080.40923817176
1080.42079338117
1080.37425406505
1080.4091389423
1080.42075298523
1080.37443132495
1080.40923872532
1080.42079499971
1080.37424664581
1080.40909927236
1080.42077483533
1080.37442138496
1080.4092451173
1080.42077881108
1080.37424624075
1080.40909530216
1080.42077647138
972.256827154905
972.290835459723
972.323141695259
972.256009785522
972.2902202536
972.323343200474
972.256825698819
972.290832994707
972.323142533502
972.255986999345
972.290179744335
972.3233718406
972.256856268396
972.290876931041
972.32312882829
972.255987952997
972.29017807365
972.323374383928
824.656675532696
824.683263756995
824.719119618761
824.656612020756
824.684103206479
824.719262273736
824.656675543894
824.683263246708
824.719118544315
824.656623786023
824.684120370889
824.719279001439
824.656693148967
824.683283974924
824.719135010485
824.656627510374
824.684123679725
824.719280974994
654.774524554263
654.841284833351
654.896894578987
654.774209893776
654.841058762351
654.896888813481
654.77452430045
654.841284313884
654.896893820388
654.77423370018
654.841088784954
654.896907608155
654.774563860585
654.84131652112
654.896910359814
654.774236787322
654.841092024077
654.896909298306
512.982598243332
512.880515085363
512.767520198067
512.982399781563
512.879972511905
512.767452523416
512.982598409091
512.880515140528
512.767520194334
512.982405070559
512.879991717362
512.767468640568
512.982617779448
512.880532035384
512.7675242611
512.982405807441
512.879993047469
512.767469526075
472.678221964337
472.8233533804
472.793843075187
472.677496208631
472.822966671785
472.794036807236
472.678222786919
472.82335388591
472.793842786321
472.677490218297
472.822969824004
472.794051868627
472.678217039544
472.82335126433
472.793855966273
472.677490225182
472.822970065079
472.7940524417
450.44503503897
450.758607449035
451.543494952334
450.445083396998
450.758094072973
451.543473189629
450.445033241306
450.758606315566
451.543494580653
450.44495906852
450.757999680117
451.543461040624
450.445094739743
450.758643231657
451.543502249893
450.444954278076
450.757996167066
451.543460657743
1555.13251043368
1553.26285155688
1552.38539049249
1555.13250971182
1553.26285302264
1552.38539057372
1555.13251043185
1553.26285156036
1552.38539049175
1555.13251051896
1553.2628515305
1552.38539049261
1555.13250996699
1553.26285303542
1552.38539057228
1555.1325105207
1553.26285153413
1552.38539049612
302.472554599626
301.082882032577
300.184677392631
300.008148871107
300.000069450942
300.000000062066
299.999999986503
299.99999999566
299.999999999626
299.999999999995
299.999999999999
299.999999999999
299.999999999999
299.999999999999
299.999999999997
315.672357472532
308.710564533705
301.544974281195
300.054139844589
300.00025986876
300.000000084962
299.999999972422
299.999999991248
299.9999999995
299.999999999996
299.999999999998
299.999999999999
299.999999999999
299.999999999998
300
340.520579620906
328.114207689493
305.692005319455
300.196200879259
300.000789632698
300.000000209649
299.999999959824
299.999999985285
299.999999999133
299.999999999995
300
300
300
300
300.000000000001
365.644661068168
358.202567023785
314.213315473366
300.503683157057
300.001848190419
300.000000464735
299.999999946454
299.999999976958
299.999999998461
299.999999999991
300.000000000001
300
300.000000000001
300.000000000001
300.000000000003
302.472595804188
301.082899309344
300.184678352691
300.008148755404
300.000069448909
300.000000062059
299.999999986497
299.999999995653
299.999999999617
299.999999999988
299.999999999991
299.999999999992
299.999999999991
299.999999999991
299.999999999993
315.672327107625
308.71061860718
301.544999028681
300.054140948806
300.000259872453
300.000000084957
299.999999972415
299.99999999124
299.999999999491
299.999999999988
299.999999999992
299.999999999992
299.999999999991
299.999999999991
299.999999999996
340.519950533244
328.113942744524
305.692074249256
300.196208847455
300.000789684967
300.000000209653
299.999999959819
299.99999998528
299.999999999125
299.999999999987
299.999999999993
299.999999999993
299.999999999993
299.999999999993
299.999999999995
365.64271900234
358.201107561497
314.213173895024
300.503701878862
300.001848370261
300.000000464795
299.999999946455
299.999999976957
299.99999999846
299.999999999989
299.999999999999
299.999999999999
299.999999999999
300
300
302.472554655539
301.082882042179
300.184677389239
300.008148870826
300.000069450941
300.000000062066
299.999999986502
299.999999995659
299.999999999626
299.999999999995
299.999999999999
299.999999999999
300
299.999999999998
299.999999999997
315.672357722292
308.710564690026
301.544974287991
300.054139843409
300.000259868747
300.000000084962
299.999999972422
299.999999991248
299.999999999499
299.999999999995
299.999999999998
299.999999999998
299.999999999998
299.999999999998
299.999999999999
340.520579563338
328.114208034396
305.692005466057
300.196200882435
300.000789632684
300.000000209649
299.999999959823
299.999999985285
299.999999999132
299.999999999994
300
300
300
300
300.000000000001
365.644658968551
358.202566401384
314.213315883021
300.503683185433
300.001848190508
300.000000464735
299.999999946454
299.999999976958
299.999999998461
299.99999999999
300
300
300
300.000000000001
300.000000000003
302.472599585167
301.082900536143
300.184678356695
300.008148747096
300.000069448842
300.000000062063
299.999999986503
299.99999999566
299.999999999626
299.999999999995
299.999999999999
299.999999999999
299.999999999999
299.999999999999
299.999999999997
315.672338296624
308.710626886009
301.545000233659
300.054140947867
300.000259872133
300.000000084961
299.999999972423
299.999999991248
299.9999999995
299.999999999996
299.999999999998
299.999999999999
299.999999999999
299.999999999998
299.999999999999
340.519946451287
328.11395267911
305.692081049557
300.196209140539
300.000789685594
300.000000209657
299.999999959824
299.999999985285
299.999999999132
299.999999999995
300
300
300
300
300.000000000001
365.642633254286
358.201073697422
314.213186148941
300.503703161453
300.001848376577
300.000000464797
299.999999946455
299.999999976957
299.999999998461
299.999999999991
300.000000000001
300
300.000000000001
300.000000000001
300.000000000003
302.472552026293
301.082881298434
300.184677419028
300.008148877812
300.000069450985
300.000000062061
299.999999986497
299.999999995653
299.999999999617
299.999999999987
299.99999999999
299.999999999991
299.999999999991
299.999999999991
299.999999999993
315.672348205024
308.710558428324
301.544973648126
300.054139859599
300.000259869069
300.000000084957
299.999999972415
299.99999999124
299.999999999491
299.999999999989
299.999999999992
299.999999999992
299.999999999991
299.999999999991
299.999999999995
340.520580417057
328.11419706722
305.692000306744
300.196200718475
300.000789632637
300.000000209646
299.999999959819
299.99999998528
299.999999999126
299.999999999988
299.999999999993
299.999999999993
299.999999999993
299.999999999993
299.999999999995
365.644722056182
358.202588165929
314.213304392793
300.503682230209
300.001848186476
300.000000464734
299.999999946454
299.999999976957
299.99999999846
299.999999999989
299.999999999999
300
299.999999999999
300
300
302.472599676777
301.08290056046
300.184678354194
300.008148746761
300.000069448839
300.000000062064
299.999999986503
299.99999999566
299.999999999626
299.999999999995
299.999999999999
299.999999999999
299.999999999999
299.999999999999
299.999999999996
315.672338597613
308.710627106664
301.545000258396
300.054140947167
300.000259872119
300.000000084961
299.999999972422
299.999999991248
299.999999999499
299.999999999995
299.999999999998
299.999999999998
299.999999999998
299.999999999998
299.999999999999
340.519946261023
328.113952990134
305.692081257515
300.19620914834
300.0007896856
300.000000209657
299.999999959824
299.999999985285
299.999999999132
299.999999999994
300
300
300
300
300.000000000001
365.642630240464
358.20107263938
314.213186617935
300.503703203514
300.001848376758
300.000000464797
299.999999946455
299.999999976957
299.999999998461
299.99999999999
300
300
300
300.000000000001
300.000000000003
389.721612569609
373.447857602345
321.709857250872
300.861332739064
300.003256712445
300.000000880687
299.999999939648
299.999999969659
299.999999997675
299.999999999983
300
300
300
300
300.000000000001
388.961139217248
377.030554727681
328.68926973102
301.345019788473
300.005379682516
300.00000152842
299.999999941328
299.999999965703
299.999999997039
299.999999999976
300
299.999999999999
300
300
300.000000000001
394.21978164426
380.29143621929
332.917124798592
301.737648587305
300.007423876226
300.000002200513
299.999999941485
299.999999963182
299.999999996593
299.999999999972
300.000000000001
300.000000000001
300.000000000001
300.000000000001
300.000000000001
389.717543852647
373.443875576892
321.7090006729
300.86136794313
300.003257063375
300.000000880836
299.999999939651
299.999999969661
299.999999997676
299.999999999982
299.999999999998
299.999999999999
299.999999999999
299.999999999999
299.999999999999
388.95623347136
377.02726238412
328.688614324405
301.345034113545
300.005380119402
300.000001528752
299.99999994133
299.999999965704
299.99999999704
299.999999999975
299.999999999999
299.999999999999
299.999999999999
299.999999999999
300
394.218929613116
380.291316202577
332.917131185335
301.737650207904
300.007423882791
300.000002200522
299.999999941485
299.999999963183
299.999999996592
299.999999999971
300
300
300.000000000001
300
300
389.72160774906
373.447854415486
321.70985768987
300.861332860087
300.00325671291
300.000000880687
299.999999939648
299.99999996966
299.999999997675
299.999999999983
299.999999999999
300
300
300
300.000000000001
388.961135213168
377.030551732898
328.689269686166
301.345019888381
300.005379683394
300.000001528421
299.999999941328
299.999999965703
299.999999997039
299.999999999976
299.999999999999
300
300
300
300.000000000001
394.219780594564
380.291435523494
332.917124516696
301.737648596179
300.007423876385
300.000002200513
299.999999941485
299.999999963183
299.999999996593
299.999999999972
300.000000000001
300.000000000001
300.000000000001
300.000000000001
300.000000000001
389.717313832487
373.443745186946
321.709007774579
300.861371891038
300.003257082459
300.00000088084
299.999999939649
299.999999969659
299.999999997675
299.999999999983
300
300
300
300
300.000000000001
388.956015133108
377.027131681763
328.688608259334
301.345036908237
300.005380148239
300.000001528767
299.999999941329
299.999999965703
299.999999997039
299.999999999976
300
300
300
300
300.000000000001
394.218785399263
380.291235537549
332.917127880597
301.737650811325
300.007423888281
300.000002200526
299.999999941485
299.999999963182
299.999999996593
299.999999999972
300.000000000001
300.000000000001
300.000000000001
300.000000000001
300.000000000001
389.721753419542
373.447957649217
321.709849291117
300.861329171767
300.003256696623
300.000000880683
299.99999993965
299.999999969661
299.999999997676
299.999999999982
299.999999999999
299.999999999999
299.999999999999
299.999999999999
299.999999999999
388.961256320822
377.030647818585
328.689275425414
301.34501690012
300.005379653248
300.000001528407
299.999999941329
299.999999965704
299.99999999704
299.999999999975
299.999999999999
299.999999999999
299.999999999999
299.999999999999
300
394.219806131445
380.291449115032
332.917132010437
301.737648327459
300.007423870505
300.000002200509
299.999999941485
299.999999963182
299.999999996592
299.999999999971
300
300
300.000000000001
300.000000000001
300
389.717305685055
373.443741075133
321.70900826748
300.861372031547
300.003257083074
300.00000088084
299.999999939649
299.99999996966
299.999999997675
299.999999999983
299.999999999999
299.999999999999
300
300
300.000000000001
388.956007583918
377.027127573731
328.688608308636
301.34503701438
300.005380149195
300.000001528767
299.999999941328
299.999999965703
299.999999997039
299.999999999976
299.999999999999
300
300
300
300.000000000001
394.218780553722
380.291233253419
332.917127945092
301.737650839019
300.007423888495
300.000002200526
299.999999941485
299.999999963182
299.999999996592
299.999999999972
300.000000000001
300.000000000001
300.000000000001
300.000000000001
300.000000000001
)
;

boundaryField
{
    inlet
    {
        type            timeVaryingMappedFixedValue;
        fieldTable      T;
        value           nonuniform List<scalar> 
24
(
1579.96342323955
1579.96342323955
1579.96342323955
1579.96342323955
1579.96342323955
1579.96342323955
1579.96342323955
1579.96342323955
1579.96342323955
1579.96342323955
1579.96342323955
1579.96342323955
1579.96342323955
1579.96342323955
1579.96342323955
1579.96342323955
1579.96342323955
1579.96342323955
1579.96342323955
1579.96342323955
1579.96342323955
1579.96342323955
1579.96342323955
1579.96342323955
)
;
    }
    outlet
    {
        type            freestream;
        freestreamValue uniform 300;
        value           nonuniform List<scalar> 
156
(
302.419055757483
301.057244002788
300.17963143014
300.007898643999
300.000067200924
300.000000059138
300
300
300
300
300
300
300
300
299.999999999997
302.419096458126
301.057260744751
300.17963227892
300.007898527434
300.00006719895
300.000000059132
300
300
300
300
300
300
300
299.999999999991
299.999999999993
302.419055811296
301.05724401156
300.179631426769
300.007898643729
300.000067200923
300.000000059138
300
300
300
300
300
300
300
300
299.999999999997
302.419100148327
301.057261923854
300.179632278783
300.007898519369
300.000067198888
300.000000059136
300
300
300
300
300
300
300
300
299.999999999997
302.419053256836
301.057243301385
300.179631458256
300.007898650482
300.000067200964
300.000000059134
300
300
300
300
299.99999999999
299.999999999991
300
299.999999999991
299.999999999993
302.419100237332
301.057261946899
300.179632276233
300.007898519046
300.000067198886
300.000000059136
300
300
300
300
300
300
300
300
299.999999999996
300
300
300
300
300
300
300
299.999999999993
300
300
300
300
300
300
300
300
300
300
300
300
300
300
300
300
300
300
300
300
299.999999999993
300
300
300
300
300
300
300
300
300
300
300
300
300
302.419055757483
300
300
300
302.419096458126
300
300
300
302.419055811296
300
300
300
302.419100148327
300
300
300
302.419053256836
300
300
300
302.419100237332
300
300
300
)
;
    }
    sides
    {
        type            zeroGradient;
    }
}


// ************************************************************************* //
