/*--------------------------------*- C++ -*----------------------------------*\
  =========                 |
  \\      /  F ield         | OpenFOAM: The Open Source CFD Toolbox
   \\    /   O peration     | Website:  https://openfoam.org
    \\  /    A nd           | Version:  11
     \\/     M anipulation  |
\*---------------------------------------------------------------------------*/
FoamFile
{
    format      ascii;
    class       volVectorField;
    location    "0.0000399989";
    object      U;
}
// * * * * * * * * * * * * * * * * * * * * * * * * * * * * * * * * * * * * * //

dimensions      [0 1 -1 0 0 0 0];

internalField   nonuniform List<vector> 
900
(
(-7.1947118434947 -12.4616023339057 517.366928806561)
(-5.11096240155088 -8.85244763662378 523.08124953702)
(-3.51062586344396 -6.08057599119451 529.704767030959)
(-4.02434263702379 -6.97036003436832 512.309513198443)
(-2.72313852890601 -4.71661480669633 520.585763079976)
(-1.76479900917101 -3.05671442391248 528.523986128939)
(-3.23115869558529 -5.59652632076972 503.376620555642)
(-2.22650705146076 -3.85642542231337 515.17356322602)
(-1.31157974896949 -2.27171408469646 525.243841321482)
(-14.3894238301643 8.7328233493421e-09 517.366931117311)
(-10.2219265439486 -3.98891697214017e-08 523.081250046006)
(-7.02125179699719 1.05916724554506e-07 529.704767891275)
(-8.04868479393199 1.44975263073542e-08 512.309515594786)
(-5.44627868204999 -4.34072699930886e-08 520.58576454393)
(-3.52959762912676 1.12005595362428e-07 528.523987974659)
(-6.46231582258275 2.29534339702955e-08 503.3766208913)
(-4.45301605782375 -5.326645236056e-08 515.173563213493)
(-2.62315616009617 1.18343840573048e-07 525.243841413516)
(-7.1947118366856 12.4616023578479 517.366928820326)
(-5.11096239881347 8.85244754820164 523.08124951524)
(-3.51062593312872 6.08057620270197 529.704767073221)
(-4.02434263275109 6.97036006788749 512.309513208147)
(-2.72313852874972 4.71661471319897 520.585763062677)
(-1.76479909463714 3.05671464817529 528.523986166383)
(-3.23115869591934 5.59652636728257 503.376620562568)
(-2.22650705653882 3.85642531018071 515.173563210351)
(-1.31157979341887 2.27171433118607 525.243841358874)
(7.19470987599296 12.4616025125779 517.366928693076)
(5.11096521837397 8.85244713715078 523.081250174785)
(3.51062096165931 6.08057772017079 529.704766630055)
(4.02433995719822 6.97036032881376 512.309513144801)
(2.72314124967904 4.71661485374982 520.585763661069)
(1.76479326633266 3.05671615727087 528.523986056399)
(3.23115551001862 5.59652646336887 503.376620427744)
(2.22651047874217 3.85642521738875 515.173564033162)
(1.31157070341372 2.27171490660749 525.243841018237)
(14.389421213081 1.91480361148459e-08 517.366930905867)
(10.2219300291695 -4.12626288653957e-08 523.081254301759)
(7.0212410307359 4.86452160832701e-08 529.704773688375)
(8.0486816205928 2.07246277823481e-08 512.309515508883)
(5.44628166945255 -4.4962328651727e-08 520.585768163388)
(3.5295851134463 4.31845170221845e-08 528.52399282814)
(6.46231245781432 2.73190559875645e-08 503.376620743172)
(4.45301940641517 -5.38713741136176e-08 515.173565051857)
(2.62314476201992 8.92470765656807e-08 525.243843213691)
(7.19470986493761 -12.4616024798651 517.36692867894)
(5.11096522229611 -8.85244722157874 523.081250177143)
(3.51062099449488 -6.08057757708279 529.704766497332)
(4.02433994757547 -6.97036028455017 512.309513138572)
(2.72314125471832 -4.71661494973761 520.585763662149)
(1.7647933096487 -3.0567160240256 528.523985952267)
(3.23115550390658 -5.59652641560022 503.376620424872)
(2.22651047862741 -3.85642533586139 515.173564049665)
(1.31157071942206 -2.27171470988324 525.243840953814)
(-2.05476222810591 -3.55895685360421 532.323060906636)
(-0.98627803643745 -1.70828229199902 529.419679713419)
(-0.37534629014388 -0.650110996552396 520.546296578749)
(-0.964296620533596 -1.67021443338143 531.960349930161)
(-0.434649059230071 -0.752833900314327 529.47098415866)
(-0.141293369867186 -0.244703917078033 520.648019544227)
(-0.709720330547296 -1.2292725807152 530.208277469888)
(-0.330012350207485 -0.571587038146235 528.769228388532)
(-0.139305378976839 -0.241272924018089 520.580420040178)
(-4.1095287966177 -2.73257595563791e-07 532.323062786592)
(-1.97253760036988 3.88105074592592e-07 529.419688820124)
(-0.750754356586527 -5.01052811734368e-07 520.546300501284)
(-1.92859715879619 -2.77105234148725e-07 531.960352482778)
(-0.86927895005784 4.22747387259743e-07 529.470985668957)
(-0.282614603344012 -5.81517067651778e-07 520.648025706313)
(-1.41944174641083 -3.11299335259102e-07 530.208277585807)
(-0.660012650590648 3.40954669534876e-07 528.769234376732)
(-0.27861486540538 -2.40800165830202e-07 520.580426536301)
(-2.05476213603006 3.55895633846141 532.323060859696)
(-0.9862785977072 1.70828309606711 529.419679864203)
(-0.375345652009819 0.650109859193377 520.546296265776)
(-0.964296542269286 1.67021390564144 531.96034989548)
(-0.434649578060769 0.752834558308894 529.470984354581)
(-0.141292168081706 0.244702807009187 520.648018778331)
(-0.709720300780397 1.22927195011797 530.208277429258)
(-0.330012518689578 0.571587711832552 528.769228351423)
(-0.139304838239335 0.241272649135635 520.580418620049)
(2.05476716006206 3.5589583547751 532.323062332559)
(0.986259502968628 1.70827110141963 529.419692053954)
(0.375368869494666 0.650158056677225 520.546352843975)
(0.96430060523936 1.67021594977997 531.960352318927)
(0.434629008346131 0.75282014390388 529.470989753182)
(0.141296573342955 0.244734698392233 520.648063690645)
(0.709720125618095 1.22927274231468 530.208277401191)
(0.329991526637243 0.571582023078368 528.769230599893)
(0.1393027390083 0.241280258677035 520.580428669663)
(4.10952447391093 -2.11493592140171e-07 532.323070177069)
(1.97253419761327 -1.02739515306514e-07 529.419682324017)
(0.750689315876019 2.49250046129416e-08 520.54630286308)
(1.92859120950851 -2.18862967349419e-07 531.960356516979)
(0.869276184703857 -1.35540679707013e-07 529.470982867746)
(0.282575993678367 5.20734683475713e-07 520.648029391679)
(1.41943826146607 -2.87453135532953e-07 530.208280570364)
(0.659998242995727 1.69771303164959e-07 528.769228761267)
(0.27859831478545 2.65937597265331e-07 520.580435740313)
(2.0547671462572 -3.55895880032846 532.323062155701)
(0.986259868253538 -1.7082709255215 529.419692587937)
(0.375367889698641 -0.650157447163175 520.546357817313)
(0.964300635971182 -1.67021650126825 531.960352184099)
(0.434629348194159 -0.752819862064011 529.470990245449)
(0.141295112974648 -0.244733406543075 520.648067093291)
(0.709720134951466 -1.2292733767664 530.208277402756)
(0.32999160491179 -0.571581444048284 528.769230572343)
(0.139302604995101 -0.241280374144723 520.580428498847)
(-0.146425322127115 -0.253574775900023 509.559132426174)
(-0.0352789997180467 -0.0610681730186652 509.633065313794)
(-0.0427522162413552 -0.0738997811378012 509.734121512824)
(-0.292433267110324 9.35777086869977e-07 509.559181544199)
(-0.0701462169616289 1.27096169842269e-06 509.632973917835)
(-0.0853634269035887 3.790934114464e-06 509.734009807109)
(-0.146424002555087 0.253575810802671 509.559130476521)
(-0.0352775937183817 0.0610691405039071 509.633061630834)
(-0.0427516750273801 0.0739097796633976 509.734116066776)
(0.146128914433982 0.253142763779266 509.559303675489)
(0.0349494686901558 0.0605855175828812 509.633035215627)
(0.0425560437627608 0.0738112485461212 509.734013109953)
(0.292792816610473 1.46042932823755e-06 509.559150398314)
(0.0705075879130931 1.31874692673839e-06 509.633101682475)
(0.0852652756675624 5.36182746184905e-06 509.73418189086)
(0.146123779594861 -0.25313158541067 509.559315330433)
(0.0349420192561603 -0.060569293042998 509.633041042856)
(0.042552609859988 -0.0737974915146236 509.734013194777)
(-0.0636961242695588 -0.110212641735453 497.041080261057)
(-0.00607033378549862 -0.0105095651279569 497.099982617188)
(-0.0114395815868606 -0.0197078274299491 497.207428803097)
(-0.127746428469501 3.41194189726981e-06 497.041533094973)
(-0.0124846642782059 5.72336282252687e-06 497.100369716126)
(-0.0228246372150018 7.7026561539626e-06 497.207544166889)
(-0.0636922722825195 0.110214801640227 497.041077726876)
(-0.00606900237555198 0.0105058333652651 497.099975557139)
(-0.0114411606869804 0.0197184625765377 497.207424829818)
(0.0637418620077273 0.110486421042139 497.041620991084)
(0.00599297288382915 0.0105162948106978 497.100333321334)
(0.0112662664669081 0.0197041250142158 497.207439190814)
(0.127292502006918 4.43829871043568e-06 497.041086904546)
(0.0121947673601623 -9.05193539112216e-07 497.100052957359)
(0.0226742575562789 2.61965325419743e-06 497.207488271627)
(0.0637357312015223 -0.110469044267865 497.041630571103)
(0.00597961493595528 -0.0104813652708628 497.100330349759)
(0.0112675338888578 -0.0196882724719507 497.207428658799)
(-0.0290460658790477 -0.0501198638347901 483.654888694355)
(0.000610244320843477 0.00125728965251015 483.699373726708)
(-0.0020507238973134 -0.00335353618836301 483.777654301202)
(-0.056166763324542 1.5741568684976e-07 483.656423423029)
(0.00260430156144867 1.08487236417242e-06 483.700628772237)
(-0.0031580531442276 4.37158805466083e-06 483.777867843659)
(-0.0290393978023888 0.0501217802849788 483.65489076135)
(0.000615949264319449 -0.0012526768377151 483.699374073026)
(-0.00204947611715089 0.00336543884699118 483.77765254994)
(0.0279514192296486 0.048391515566381 483.656542734791)
(-0.0014432587002902 -0.00249692203575611 483.700682025233)
(0.00142576484378377 0.00258413557568543 483.777856008801)
(0.0579914582098917 6.75220238655176e-06 483.654873666581)
(-0.00137203122425818 7.21477217523074e-06 483.699388217521)
(0.00382146076610164 7.00783993950558e-06 483.777698151922)
(0.0279410332341456 -0.0483733130616772 483.65655038709)
(-0.00145319565109489 0.00251631969686506 483.70068379595)
(0.00142079155812436 -0.00256687040776003 483.777853450817)
(0.011929872530758 0.0208882859891606 469.747255693601)
(0.0177119250327253 0.0309127837379141 469.767493367317)
(0.0108429309994041 0.0189813588207225 469.801266625141)
(0.0262705591327056 6.6322355501427e-07 469.748023409162)
(0.0376793945841638 1.72779166664544e-06 469.76725800295)
(0.0212581752194431 3.8310913646321e-06 469.801297862297)
(0.0119367322326839 -0.0208833505310203 469.747255218566)
(0.0177175245019857 -0.0309052681605854 469.767491979735)
(0.0108452083769384 -0.0189711401427254 469.801266111526)
(-0.0132532082109105 -0.0229394695328116 469.748120222476)
(-0.0189850613642679 -0.032817108263934 469.767316271334)
(-0.010783352851531 -0.0185447216002507 469.801317420392)
(-0.0240933337687472 8.51580386239657e-06 469.747314772842)
(-0.0357025842600773 8.71173612523244e-06 469.767561078197)
(-0.0219797856877352 7.13458273155725e-06 469.80129310066)
(-0.0132617329075145 0.0229553840907053 469.748124894137)
(-0.0189929147479118 0.0328340289410895 469.76731845196)
(-0.0107871123257987 0.0185588667204896 469.801317992959)
(-0.185003148669069 -0.320183344061435 466.723071321316)
(-0.117407366817155 -0.203077279084289 466.794885984346)
(-0.0545887493019262 -0.0942541620686499 466.823095842772)
(-0.369364163661807 3.29370166129623e-06 466.722270256009)
(-0.234787700469609 3.50073920001538e-06 466.794181431363)
(-0.109973144350792 5.66929112496535e-06 466.82352774645)
(-0.184999498903514 0.320191613980294 466.723069903793)
(-0.117403826372748 0.203086841199281 466.794884479603)
(-0.0545866463342266 0.094265907026958 466.823096815994)
(0.184492473417047 0.319690768660788 466.722333395773)
(0.11719315307681 0.203125360025722 466.794216011953)
(0.0547449396809265 0.0950604645049748 466.823574054665)
(0.369663559000282 7.43318004428292e-06 466.723102535402)
(0.234435756593995 7.94420264962999e-06 466.794916261087)
(0.108736916352073 7.72229449915183e-06 466.823098797211)
(0.18448729609347 -0.319675463726806 466.722335542219)
(0.117187965413269 -0.203109547948821 466.794217252104)
(0.0547421254863877 -0.095044269011719 466.823579926225)
(0.315938874414793 0.547374593158989 442.250548213748)
(0.196628963713856 0.340724750784526 442.311663303611)
(0.0813728555097465 0.14108670177604 442.371660678457)
(0.634502789640646 2.41975631145353e-06 442.250747934468)
(0.394431218252549 2.45420467057375e-06 442.311883241771)
(0.163281032254315 3.11799038533608e-06 442.371800975224)
(0.315939704714025 -0.54736909570668 442.250548467272)
(0.196629474703985 -0.340718710337782 442.311663561115)
(0.0813730001477846 -0.141080027703674 442.371662085797)
(-0.31737584145399 -0.54959022805012 442.250752193559)
(-0.197350054980701 -0.34169766065855 442.311859580369)
(-0.0817770451394375 -0.141502857631774 442.371796807089)
(-0.632113622619762 3.51044775168169e-06 442.250558020734)
(-0.393503355121912 3.50379961379109e-06 442.311672302446)
(-0.162986213173831 3.4720468831083e-06 442.371627593306)
(-0.317377481574051 0.549597806052352 442.250752416861)
(-0.197352101608109 0.341706019838378 442.311858399464)
(-0.0817782074646699 0.141511067861398 442.371796759078)
(-0.319228267827633 -0.552814682166181 426.303001111708)
(-0.179423016839061 -0.310651088859258 425.801706451333)
(-0.0937008771219872 -0.162173546018049 425.257217409612)
(-0.635489882012598 1.70106202630409e-06 426.304101451015)
(-0.356417033357528 1.68196550770597e-06 425.802286915354)
(-0.186454270716756 2.66580457537188e-06 425.257697232798)
(-0.319227846037659 0.552818599759851 426.303003062952)
(-0.17942251378848 0.310655438836451 425.80170821215)
(-0.0937005118426802 0.162178904811034 425.257218626284)
(0.317653336206911 0.550272998900134 426.304155635909)
(0.178100475257388 0.308556326546408 425.80232168571)
(0.0931166030115916 0.161401470065355 425.257665365436)
(0.638286043447122 2.35980466227997e-06 426.302962058087)
(0.358663029506482 2.6371498332723e-06 425.801673159344)
(0.187206548934863 3.00043376057208e-06 425.257189074479)
(0.317652102030248 -0.550267538668386 426.304157366799)
(0.178098611109074 -0.30854979073567 425.802322625453)
(0.0931160107852304 -0.161395146419138 425.257663946108)
(0.278443672942898 0.482364037978681 421.805163121447)
(0.403630316858987 0.699215867723696 422.006748874252)
(0.171309128287313 0.296838585134952 420.15010324024)
(0.560081066092254 5.03677837279745e-07 421.80707575389)
(0.811128974495179 4.19871846240519e-07 422.007617373395)
(0.344190937386437 1.63612115375258e-06 420.151369025412)
(0.278444202724914 -0.482361431468829 421.805167667879)
(0.403631375051803 -0.69921355848183 422.006751163455)
(0.171310240546198 -0.296835350319097 420.150100416511)
(-0.28012416304943 -0.485176779181212 421.807216742752)
(-0.405692878676779 -0.702677804083774 422.007720706604)
(-0.172203960123486 -0.298193019997783 420.151266413745)
(-0.557007667175922 1.76139485015302e-06 421.805047468381)
(-0.807376587412109 2.0833107665731e-06 422.006691121179)
(-0.342767146502538 2.58047035142764e-06 420.150183717028)
(-0.280126956698391 0.485182623194069 421.807221689268)
(-0.405697644845121 0.702686870422908 422.007724367383)
(-0.172205712363706 0.298199303070712 420.151262151165)
(-8.41231872870646 -14.5705625893512 497.891605603062)
(-4.659390003281 -8.07029842651955 484.203040717366)
(-3.32114163479105 -5.75238587570186 471.267999710017)
(-16.8246383573639 -1.37470226296458e-08 497.891610162627)
(-9.31878196934726 -1.38706157651955e-08 484.203042608567)
(-6.6422841143164 -1.65778476102378e-08 471.268000126347)
(-8.41231873094383 14.5705625629746 497.891605609633)
(-4.65939000904915 8.0702983978129 484.203040719643)
(-3.32114163810336 5.7523858426016 471.267999709237)
(8.4123201156495 14.5705625439276 497.891605673573)
(4.65939158714463 8.07029836162316 484.203040797266)
(3.32114344245499 5.75238582237141 471.267999752293)
(16.8246398622702 -1.68311232233434e-08 497.891610354513)
(9.31878373870028 -2.02639157630566e-08 484.203042795917)
(6.64228595447212 -1.97379289541524e-08 471.268000198535)
(8.41232012062753 -14.5705625763601 497.891605678323)
(4.65939159428027 -8.07029839986041 484.20304080129)
(3.32114344483926 -5.75238585956527 471.267999753701)
(6.32074747474813 10.9478557702167 -0.0325753522488834)
(2.76127317880028 4.78266549989172 1.37599335479158)
(0.410954107171006 0.711793412982059 0.353768282543011)
(0.0149717829888709 0.0259318891608885 0.0192742244359526)
(9.60617385600837e-05 0.000166383813291467 0.000176879103389419)
(2.56891802642909e-08 4.4491753286064e-08 2.39311085239331e-07)
(-9.97318359901333e-09 -1.72778725578088e-08 -1.58065640412579e-08)
(-2.8880922766196e-09 -5.00661520962121e-09 -1.11064199765313e-08)
(-1.89283799441364e-10 -3.31900641549111e-10 -1.03439196610387e-09)
(-5.80809990080364e-13 -3.60979082103806e-12 -1.04921775787225e-11)
(4.74769137275105e-13 -1.76558896746521e-12 -2.44109461092846e-14)
(8.91266458070126e-13 -8.94569793215866e-13 3.13212123273551e-13)
(9.88692957995329e-13 -1.0608539318432e-12 1.40794115922816e-12)
(7.64643017699839e-13 -1.52228824730149e-12 1.34283931826114e-12)
(6.22408228453011e-13 -2.63849628443073e-13 -3.72662294683042e-13)
(23.5006799572151 40.70436945291 1.60395959376132)
(12.7631594733434 22.1064395475996 10.3104210146243)
(2.04573745782664 3.54332116863526 2.95050345608778)
(0.0601934416290697 0.104258104681344 0.132224726857391)
(0.000216254617029704 0.000374564015617909 0.000741146898237533)
(-2.25750229141276e-08 -3.91053825121094e-08 3.95906885318158e-07)
(-3.23576980162724e-08 -5.60516811441381e-08 -5.14603695777931e-08)
(-7.37701731488293e-09 -1.2783907565404e-08 -2.27847951849324e-08)
(-2.12019253903591e-10 -3.725336084836e-10 -1.41776758830695e-09)
(9.0136684654375e-14 -2.00574142250412e-12 -8.89860903283978e-12)
(9.30473613050362e-13 -5.97203160416501e-13 -3.15067309091005e-13)
(1.00666998088849e-12 -1.09036168821219e-12 2.64748955566267e-13)
(9.71217174430136e-13 -1.00831993891933e-12 1.40828224594307e-12)
(1.11676209446821e-12 -3.06708835922419e-13 8.00398271512094e-13)
(1.59613838945705e-12 1.68536342820016e-12 -6.49086604685049e-13)
(49.0823345545691 85.0130899141421 44.699305576988)
(33.2988348579029 57.6752697742867 41.5220690554928)
(5.99983029401557 10.3920090953931 12.653903788223)
(0.167010037507256 0.289269820298982 0.529680207613391)
(0.000484698957228064 0.000839523288312591 0.00233789250878895)
(-1.61274139526672e-08 -2.793768874897e-08 8.04902549268666e-07)
(-5.32219847630647e-08 -9.2189325246476e-08 -1.09882278138844e-07)
(-1.24379313119812e-08 -2.15493884278159e-08 -4.1340794811452e-08)
(-4.50183602292388e-10 -7.84615286988134e-10 -2.41425401377547e-09)
(-5.00479624655626e-13 -3.84116515631852e-12 -1.40427755665066e-11)
(1.43754802533119e-12 -4.04709890251928e-13 1.50431538175388e-13)
(8.51562202481306e-13 -1.72964478181341e-12 4.32840263647463e-13)
(8.95786325502671e-13 -1.44920282202554e-12 1.15470579690861e-12)
(1.76514792253629e-12 2.24952904550799e-13 4.06686965516675e-13)
(1.62788118288888e-12 6.23173884660653e-13 -8.72011931853634e-13)
(80.8550293455189 140.044992626976 238.34383345665)
(52.4751267553155 90.8895672290544 119.68888548445)
(9.04497245987382 15.666346633159 33.1865804291358)
(0.250249333647044 0.433444097319019 1.36420169164891)
(0.000717531484986656 0.00124279921976322 0.00551280616838456)
(1.52943788805348e-08 2.64865074966874e-08 1.60631243428712e-06)
(-6.57484148916421e-08 -1.13885080100363e-07 -1.87152702072781e-07)
(-1.56499883451726e-08 -2.71126042537231e-08 -6.90435798781868e-08)
(-6.5229419885306e-10 -1.1335355025415e-09 -4.39722440391673e-09)
(-1.66016020012977e-12 -6.08322907625663e-12 -2.7127896121056e-11)
(1.51950620512319e-12 -7.87588245839297e-13 5.34482433412711e-13)
(1.41360207567304e-12 -9.88397171875343e-13 6.09137149800174e-13)
(1.53340549521884e-12 -7.39552439942911e-13 7.31008035689927e-13)
(1.82455259893204e-12 -6.92364575509207e-15 -1.88251077982851e-15)
(1.46234903920597e-12 -1.05489532276419e-12 -7.05670279841752e-13)
(12.6416741046348 -2.34933993113445e-09 -0.0325773304099746)
(5.52260550085958 3.01503637647433e-10 1.37601174621049)
(0.821909057838056 -1.16202464099184e-11 0.35376915429284)
(0.0299431628793851 -1.40001626131295e-11 0.0192739474178842)
(0.000192118817558772 2.80473971938047e-13 0.000176874069998477)
(5.13725029905743e-08 1.70811316262346e-13 2.39306402599279e-07)
(-1.9949912068982e-08 -1.53361417931443e-14 -1.58046287449872e-08)
(-5.77812251690262e-09 -6.44077947735083e-14 -1.11039642592047e-08)
(-3.81372092802381e-10 -2.28661309550016e-15 -1.0339071557432e-09)
(-2.19964351878797e-12 -3.35667547625111e-13 -1.0316457656516e-11)
(-1.67690867327014e-13 -4.64284295869629e-13 1.20212946133297e-13)
(-1.79973388736593e-13 -5.19251388783465e-13 1.12803561655552e-13)
(-1.77494153260123e-13 -3.53978829948026e-13 3.79926555072488e-13)
(-1.26408805019528e-13 -1.58108263661578e-13 -1.43490307442996e-13)
(1.13084517776672e-13 -2.66738677388978e-13 -1.18685364542567e-12)
(47.0012999537551 -1.94740266541492e-08 1.60388542907245)
(25.5264286200762 -9.36380631244472e-09 10.310464388075)
(4.09152767211199 -1.36565154505793e-10 2.95053264369593)
(0.120389310379695 1.58331363436597e-11 0.132226289503318)
(0.000432519251677655 5.0950519959937e-15 0.000741152138911213)
(-4.51506656252605e-08 1.89133478815482e-13 3.95904787812828e-07)
(-6.47182738984453e-08 5.26706809965934e-14 -5.14606391357574e-08)
(-1.47578865805817e-08 7.64823350096094e-14 -2.27842420834572e-08)
(-4.24872133245694e-10 2.00657161238363e-13 -1.41690544790376e-09)
(1.35977856484817e-12 -4.33415654173261e-13 -8.78546619539157e-12)
(2.76555731954862e-12 -3.36921540191725e-13 2.07039900698226e-13)
(2.65887342079493e-12 -5.03337874401881e-13 2.07964274053216e-13)
(2.83246432189079e-12 -5.15554175811618e-13 4.48536151501088e-13)
(2.98050927992278e-12 1.21217905228868e-15 -2.60995505034379e-13)
(2.91830347885996e-12 -2.53622455491765e-13 -1.84781636215578e-12)
(98.1632336975404 4.14756838878357e-08 44.698781579997)
(66.5972227909929 2.08011321252546e-09 41.5216688682548)
(11.9997876190872 -7.41815454089675e-09 12.6539913127796)
(0.334034009051742 -4.8772490414614e-11 0.52969534781838)
(0.000969486276702002 9.20792821127665e-13 0.00233801429626296)
(-3.22272014056418e-08 2.39383742164246e-13 8.04964715177365e-07)
(-1.06445859845433e-07 1.7778515097395e-13 -1.09881810425976e-07)
(-2.48793046366833e-08 1.92550744452813e-13 -4.13405105811202e-08)
(-9.02857405934105e-10 1.01736966150117e-13 -2.41300750885809e-09)
(1.06042429344856e-12 -2.71149751624728e-13 -1.34956777248492e-11)
(5.02210118002643e-12 -3.15391357869216e-13 4.51023928492509e-13)
(5.16567713552931e-12 -3.65246936384536e-13 1.90163350614907e-13)
(4.93075192911676e-12 -2.74095411104171e-13 3.72719959753164e-13)
(5.0323705785957e-12 2.33488746097646e-13 -6.79716623056052e-14)
(2.97400637764125e-12 -1.60063829497185e-13 -1.91590184561499e-12)
(161.708275164552 -2.106284653793e-07 238.343605847027)
(104.948077166972 4.65639178819323e-08 119.687423186912)
(18.0897908202637 -3.94335416517978e-08 33.1863706344232)
(0.500514746619617 -1.98846578337715e-09 1.3642386056909)
(0.00143516864782725 -5.84977061893421e-12 0.00551324572956816)
(3.06294495404938e-08 1.6528665440986e-13 1.6065778630692e-06)
(-1.31497353747305e-07 1.59090734592165e-13 -1.87151723419233e-07)
(-3.13010704283667e-08 1.89350878153732e-13 -6.90433525397848e-08)
(-1.30285531540531e-09 -7.43949340285991e-15 -4.39707531801281e-09)
(-1.07794893109274e-12 -1.58598238678707e-13 -2.6535246488641e-11)
(5.79142009258506e-12 -4.79480199170865e-13 3.37346072832192e-13)
(5.75433251886294e-12 -1.34706696946512e-13 5.16177886138089e-13)
(5.31820477542131e-12 -1.74922020161031e-13 5.55182194364178e-13)
(5.42230369226478e-12 8.35712206135979e-14 -5.23142611625021e-14)
(3.94902058610079e-12 -5.12488821347911e-14 -1.21111794781205e-12)
(6.32074755134048 -10.9478559155582 -0.0325753404721234)
(2.7612731819643 -4.78266550951422 1.37599336566316)
(0.410954099907611 -0.711793401026933 0.353768277775704)
(0.014971782554306 -0.0259318884433069 0.0192742239153378)
(9.60617368072301e-05 -0.000166383810530283 0.000176879101088459)
(2.56890134468116e-08 -4.44915352618812e-08 2.39311735879178e-07)
(-9.97319544736193e-09 1.72779328283991e-08 -1.58061581676395e-08)
(-2.8879334196621e-09 5.00634605705314e-09 -1.11065159510654e-08)
(-1.89110479801056e-10 3.31583949526753e-10 -1.03341444562019e-09)
(-3.79085733441067e-13 3.35356564635612e-12 -9.77255317944072e-12)
(8.285682769905e-13 1.23754260514373e-12 -2.80746192999466e-14)
(8.67059105318239e-13 1.28645649586958e-12 -1.78177628648545e-13)
(5.57206168151842e-13 2.03373902331592e-12 9.16595647903531e-13)
(9.51879929817828e-13 9.01933055768629e-13 1.48252816565792e-12)
(8.05212655568894e-13 1.82526272890117e-13 -3.90902940712688e-13)
(23.5006801245293 -40.7043698380331 1.60395966613518)
(12.7631595899782 -22.106439796153 10.3104211548781)
(2.04573746088918 -3.54332117711751 2.95050346235747)
(0.0601934406159824 -0.104258102811082 0.132224724246856)
(0.000216254605147989 -0.00037456399463032 0.000741146867782412)
(-2.25753436803434e-08 3.91058056351372e-08 3.95907245132174e-07)
(-3.23576009849368e-08 5.60514619610824e-08 -5.1460396342307e-08)
(-7.37662957630593e-09 1.27831611748707e-08 -2.27850182452794e-08)
(-2.12516083293034e-10 3.7280117729474e-10 -1.41692356669151e-09)
(5.98468163881287e-13 1.5463371364865e-12 -8.78039380450775e-12)
(1.31502192411305e-12 9.90065379205564e-14 -3.13183113175341e-14)
(1.46680324806622e-12 5.92159886952906e-13 1.04859910190846e-13)
(1.27173181332933e-12 8.87259135829701e-13 7.83769512303379e-13)
(1.38596991852641e-12 -3.08034932019415e-13 6.87028037564804e-13)
(1.9198018276084e-12 -2.01275658446589e-12 -5.45190749511486e-13)
(49.0823340722849 -85.0130893632406 44.6993054801369)
(33.2988349662184 -57.6752701332819 41.52206924073)
(5.99983035732912 -10.3920092632687 12.653903984824)
(0.167010038918561 -0.289269823962011 0.529680212403667)
(0.000484698955524948 -0.000839523280218992 0.00233789246609577)
(-1.61276201653288e-08 2.79379086834844e-08 8.04902717026192e-07)
(-5.32221458876941e-08 9.21892993267406e-08 -1.0988228361558e-07)
(-1.24381606670747e-08 2.15494052589466e-08 -4.13408469447486e-08)
(-4.50188616067433e-10 7.84247545372845e-10 -2.41389222243173e-09)
(1.10533176690836e-13 3.14490064986751e-12 -1.3910800547208e-11)
(1.5839314051956e-12 2.90308714947776e-13 1.47753096227157e-13)
(1.64565888941258e-12 6.49702511072096e-13 1.77528725299233e-13)
(1.71079307461051e-12 2.68447804599203e-13 5.76667277625467e-13)
(1.21352205144897e-12 6.32928288233933e-14 2.93621218278771e-13)
(1.6034340646323e-12 -7.29460979903516e-13 -4.50166461073038e-13)
(80.8550272291881 -140.044989838032 238.343831365541)
(52.475125920916 -90.8895663829658 119.688884158613)
(9.04497268395535 -15.6663471959752 33.1865807463444)
(0.250249347017782 -0.433444133544904 1.36420174487379)
(0.000717531535189458 -0.00124279934339068 0.00551280638431221)
(1.52941478545305e-08 -2.6485997948174e-08 1.60631246229525e-06)
(-6.57486174524861e-08 1.13885135928508e-07 -1.87152716787572e-07)
(-1.56502851374321e-08 2.7112491573794e-08 -6.90437536029507e-08)
(-6.52390032080969e-10 1.13358328852043e-09 -4.39687683537792e-09)
(-1.30048253018764e-12 5.63107732188088e-12 -2.64700923236301e-11)
(1.98711556731058e-12 2.8127907443473e-13 1.66798112983287e-13)
(1.73568491350724e-12 3.59994448752213e-13 3.35365600374133e-13)
(1.68359531855564e-12 6.04093011674571e-13 5.69799821234907e-13)
(1.54619677497395e-12 8.29802087897077e-14 -1.11158408284357e-13)
(1.82175781857146e-12 4.18468369311475e-13 -4.79197070359213e-13)
(-6.32084444842086 -10.9480247784693 -0.032577075757045)
(-2.76130484777525 -4.78272064798327 1.37601314806017)
(-0.41095448323444 -0.711794086429709 0.353769167322955)
(-0.0149715681645635 -0.025931518901925 0.0192739306192029)
(-9.60593162963488e-05 -0.000166379624574459 0.000176873907165082)
(-2.56874064918e-08 -4.44885778712834e-08 2.39305289345469e-07)
(9.97310118224609e-09 1.72777955592672e-08 -1.58065456588144e-08)
(2.88805691777395e-09 5.00645348337274e-09 -1.11063251457224e-08)
(1.8920738404477e-10 3.31868357090541e-10 -1.03369383471611e-09)
(1.35261406226352e-13 3.21726290652221e-12 -9.66457559884109e-12)
(-1.07658233858583e-12 1.25044329088089e-12 3.65108799869549e-14)
(-1.23483653491064e-12 8.25059697749391e-13 -2.34021460586818e-13)
(-1.13581702263714e-12 1.0265769812858e-12 8.64369121463761e-13)
(-5.76440292882967e-13 1.38910412860151e-12 1.35986643665953e-12)
(-5.61138871380833e-13 3.35738141294772e-13 -3.43464081294163e-13)
(-23.5006606909841 -40.7043423273501 1.60388600943103)
(-12.7632227570538 -22.1065523568158 10.3104722461649)
(-2.04576504612659 -3.5433692474507 2.95053431636352)
(-0.0601946549334903 -0.104260206922046 0.132226271940319)
(-0.000216259365478105 -0.000374572249299608 0.000741151348076797)
(2.25740996212275e-08 3.91039303447991e-08 3.95903284015404e-07)
(3.23576931487053e-08 5.60516234024013e-08 -5.14604465886919e-08)
(7.37705152713956e-09 1.27838595797734e-08 -2.27845282469417e-08)
(2.11736151584407e-10 3.71948528379121e-10 -1.41744781874383e-09)
(-5.12205738740756e-13 1.50205166891334e-12 -8.49336690672149e-12)
(-1.3800156026964e-12 -5.34333107938351e-14 -1.66317212203991e-13)
(-1.42847417583974e-12 4.3125310426185e-13 -1.10396603788904e-14)
(-1.13225585574083e-12 8.87187000565773e-13 1.04735238470081e-12)
(-1.10287495846874e-12 1.16497823291081e-13 9.13324825668783e-13)
(-1.61819815471246e-12 -1.69203037303536e-12 -5.84853527735362e-13)
(-49.0815992174931 -85.0118245340195 44.6987751467907)
(-33.2986158966611 -57.6748975361785 41.5216718570794)
(-5.99989938001748 -10.3921317383248 12.6540009969456)
(-0.167017254053654 -0.289282400151147 0.52969591814662)
(-0.000484743846054185 -0.000839601026655822 0.00233801571257133)
(1.61124580779164e-08 2.79120844587963e-08 8.04963387821266e-07)
(5.32222128512087e-08 9.21894581740429e-08 -1.09881832620312e-07)
(1.24382565622624e-08 2.15497217949013e-08 -4.13407007351108e-08)
(4.50246536532905e-10 7.84569252855244e-10 -2.41402253399738e-09)
(2.052869662095e-13 3.59842948637257e-12 -1.38552972959012e-11)
(-1.62663201864964e-12 5.32870120805503e-14 1.89123631481759e-13)
(-1.17394998009971e-12 1.31078577102129e-12 2.9106549565204e-13)