/*--------------------------------*- C++ -*----------------------------------*\
  =========                 |
  \\      /  F ield         | OpenFOAM: The Open Source CFD Toolbox
   \\    /   O peration     | Website:  https://openfoam.org
    \\  /    A nd           | Version:  11
     \\/     M anipulation  |
\*---------------------------------------------------------------------------*/
FoamFile
{
    format      ascii;
    class       volScalarField;
    location    "0.0000500006";
    object      Ma;
}
// * * * * * * * * * * * * * * * * * * * * * * * * * * * * * * * * * * * * * //

dimensions      [0 0 0 0 0 0 0];

internalField   nonuniform List<scalar> 
900
(
0.732529918410837
0.75024743551676
0.767344326521279
0.726900953873221
0.747105802877569
0.765638042743173
0.717381799082402
0.741293919353474
0.762057156831767
0.732529877086472
0.750247471342714
0.767344262998822
0.726900931331832
0.74710582229468
0.765638022096262
0.71738181061006
0.741293897088367
0.76205718549989
0.732529918455596
0.750247435536387
0.767344326007309
0.72690095392194
0.747105802875785
0.765638042353787
0.717381799002344
0.741293919594367
0.762057156247768
0.732529866266509
0.750247483220063
0.767344252668476
0.726900923438096
0.747105830434727
0.765638014059349
0.717381806059482
0.741293906418336
0.762057176680135
0.732529907858213
0.750247450767621
0.767344316863789
0.726900947050556
0.747105814417124
0.765638037263555
0.717381795611871
0.741293928425841
0.762057149498931
0.732529866464201
0.750247482657299
0.767344253811672
0.726900923543166
0.747105830011719
0.765638014804479
0.717381806073655
0.741293906288774
0.762057177065365
0.781918065146672
0.792332532671549
0.795695976562556
0.781283300156662
0.792274007822598
0.795783596417285
0.779308977205324
0.791326748888548
0.795443293408222
0.78191801098769
0.792332553216499
0.795696308776378
0.781283378223044
0.792273920523027
0.79578398815581
0.779308910577547
0.79132681265307
0.795443257868948
0.781918064798021
0.792332529563201
0.795695974846405
0.781283299584305
0.792274005303272
0.795783590256127
0.779308977640823
0.791326745513474
0.795443291765977
0.781918022421829
0.792332662451576
0.795696561755253
0.781283385634155
0.792273995382216
0.795784139708012
0.779308926493413
0.7913268287467
0.795443337946813
0.781918069602276
0.792332567705567
0.795695983189824
0.781283306047038
0.792274038742223
0.795783647474324
0.779308991998517
0.791326756265714
0.795443326434201
0.781918021178408
0.792332676357016
0.795696591604587
0.781283384533752
0.792274006112277
0.795784156312551
0.779308926261318
0.791326832797003
0.795443345832926
0.795121680605109
0.79520011385222
0.795242887075046
0.795123027866489
0.79520007657303
0.795242058692016
0.795121685122465
0.795200106584661
0.795242856376037
0.795123574311867
0.795200343805104
0.795242070295738
0.7951216353888
0.795200189122555
0.79524317444974
0.795123629451956
0.795200370763911
0.795242074131313
0.793569438317528
0.793647726142658
0.793766552221899
0.793568994846297
0.793645835435972
0.793765597333253
0.793569438833824
0.793647695030196
0.793766496759262
0.793569676474707
0.793645946519218
0.793765359232565
0.793569417350579
0.793648011025143
0.793767056696768
0.79356975613739
0.7936459681251
0.793765333730955
0.793193871939154
0.793236852528306
0.793329406487176
0.793192613828472
0.793236328926168
0.793329862754034
0.793193847397884
0.793236828399404
0.793329399093775
0.793192667772392
0.793236087708561
0.793329667177937
0.793194145557195
0.793237115068352
0.79332951831328
0.793192672577189
0.793236058314729
0.793329642601339
0.7946536132109
0.794726218588087
0.794837259796879
0.794654596366249
0.794727718370944
0.794837713509677
0.794653616429481
0.794726218135085
0.794837262575643
0.794654438586664
0.794727489413038
0.79483757150544
0.794653585551246
0.794726241910264
0.794837247601101
0.79465442788621
0.794727469798999
0.794837558234639
0.796131616637392
0.796110309547209
0.796085355795604
0.7961336092017
0.79610943419546
0.796085742296692
0.796131605609534
0.796110303566595
0.796085366067121
0.796133533696688
0.796109303236338
0.796085673332672
0.796131820414014
0.796110440060726
0.796085275593106
0.796133524646047
0.79610928899843
0.796085665544082
0.802758954356867
0.802681914366336
0.802576432733727
0.802742511894149
0.80262979382937
0.802574733766126
0.802758952052903
0.802681915587494
0.802576439462411
0.802742542754763
0.802629783058045
0.80257472082085
0.802759033219976
0.802681943980417
0.80257637428085
0.802742541490171
0.802629778846438
0.802574717484105
0.822868226592798
0.822778070833829
0.822415746121201
0.82280975378775
0.822690789346133
0.822277418193652
0.822868230886004
0.822778077063861
0.822415754171551
0.822809812072978
0.822690799728344
0.822277409230784
0.822868176037741
0.822778002293418
0.822415646862404
0.822809812248431
0.822690797146568
0.822277406122792
0.904861777202703
0.904551902931221
0.905143299235652
0.904666594167361
0.904521802084388
0.905190778700011
0.904861781751809
0.904551906840432
0.905143300970924
0.904666636173201
0.904521827932636
0.905190752274866
0.904861696807494
0.9045518189857
0.90514327169621
0.904666637120435
0.904521827968042
0.905190750650996
0.696920282128178
0.682372591676747
0.668469615271352
0.696920316978796
0.682372603897606
0.668469610765764
0.696920281882314
0.682372591418332
0.668469615129126
0.696920318762192
0.682372608002168
0.668469613781422
0.696920290404836
0.682372598314594
0.668469619166377
0.696920318809797
0.682372608179771
0.668469613946979
0.207660351807219
0.379380293772906
0.353304761910584
0.189420053092086
0.0406554687390114
0.0021035794442561
1.65428209698718e-05
1.33642495978183e-08
1.33235779910658e-10
8.75765302914818e-11
1.68018245652532e-11
5.80087136711583e-13
1.17672176457994e-14
7.92924642772836e-15
4.13067916515181e-15
0.16012987037264
0.403904355907368
0.402020054732302
0.260784950146965
0.0794864337813195
0.00591474382582851
6.38471110814724e-05
6.99537528263596e-08
1.10460307006789e-10
8.70645256848644e-11
2.33873977151009e-11
1.22277053084883e-12
1.24263997323651e-14
4.36798086442532e-15
8.80331938314915e-15
0.585307422171276
0.670299850990421
0.580625532673309
0.379281539769746
0.137626689207587
0.012726538178334
0.000165527145730444
2.17356510121058e-07
8.57479754029545e-11
9.23967492225581e-11
3.05927799111699e-11
2.07100422722928e-12
1.86720472959785e-14
6.87865249199541e-15
8.04598221207735e-15
1.53957207259741
1.53686300009996
0.914222358029734
0.521225663523419
0.195509995917512
0.0207512687859738
0.000309955347895258
4.74727143109732e-07
3.78223565680555e-11
9.92834377848928e-11
3.86576637504735e-11
3.26311057296062e-12
3.8383723885943e-14
8.81364229771716e-15
8.79246194354327e-15
0.209953615861207
0.390946974622308
0.356260326782851
0.188905995604464
0.0404342475490078
0.00210198438803529
1.66486328338322e-05
1.34896219702571e-08
1.3321271037928e-10
8.75649779027166e-11
1.67939405777852e-11
5.74704838017186e-13
1.80629719142573e-15
2.09476539227613e-15
5.77427282474705e-15
0.160234035731209
0.427625078440376
0.424333491730165
0.267105665923829
0.078351319555645
0.00569328529009314
6.17951485767007e-05
6.9363350523422e-08
1.10523426279719e-10
8.70577781856283e-11
2.33767812810849e-11
1.21136068864339e-12
9.68123484802018e-15
1.07907123322776e-14
1.28664321625236e-14
0.554232252323483
0.70649078662064
0.604103808341494
0.395702107737287
0.136497327507002
0.0117480116477473
0.000150765482080518
2.07010146150996e-07
8.67752950268825e-11
9.237806617558e-11
3.05825991861508e-11
2.05808347193758e-12
2.11236418176481e-14
1.63821832544941e-14
1.63676348101534e-14
1.47302461990679
1.52199564148491
0.928848483378696
0.538540458192983
0.19855012126668
0.0187981010350094
0.000269653524445824
4.32986314650588e-07
4.16684876340987e-11
9.92915631364281e-11
3.86502900842499e-11
3.25112534736446e-12
3.69318745807792e-14
1.81601729212945e-14
1.77980596164034e-14
0.207660368120185
0.379380380076832
0.353304813686287
0.189420053073215
0.0406554605618833
0.00210357873175852
1.65428157784785e-05
1.33642459886853e-08
1.33235953463797e-10
8.75769995785026e-11
1.68002714780588e-11
5.78111063977102e-13
1.14222977329887e-14
5.20419994414577e-15
3.59906051557326e-15
0.160129823080912
0.403904504215861
0.402020189335153
0.260785027902695
0.0794864308044533
0.00591474032655978
6.384704542166e-05
6.9953673297558e-08
1.10460496411716e-10
8.70647084061816e-11
2.33869182204077e-11
1.22157369276869e-12
1.17649240479811e-14
4.43871257217638e-15
9.62239336337764e-15
0.585307100897308
0.670299846618418
0.580625567146363
0.379281630282363
0.13762672265589
0.0127265310462163
0.000165526889078871
2.17356025177384e-07
8.5748262072841e-11
9.239739187009e-11
3.05924412668181e-11
2.07070088727006e-12
2.07096503673007e-14
5.36499965341154e-15
5.72436393774987e-15
1.53957168873516
1.5368628935826
0.914222263079917
0.521225707245618
0.195510068905882
0.0207512642888496
0.000309954918576614
4.74725996957808e-07
3.7821846804787e-11
9.92840074097107e-11
3.86573621689311e-11
3.26354915725519e-12
4.00502276126731e-14
8.21768393402698e-15
7.16672612100947e-15
0.209954527682939
0.390951734071561
0.356263071329485
0.188906360169438
0.0404340146612974
0.00210196245582113
1.66484936389313e-05
1.34895932374083e-08
1.33225755510716e-10
8.75770425560302e-11
1.68008842160543e-11
5.79278239267764e-13
1.16343379196598e-14
6.73255146648254e-15
3.35783152232815e-15
0.160233659736291
0.427629726525249
0.424339342295132
0.267108839836036
0.0783512883712763
0.00569318811741237
6.17934770490533e-05
6.93614128728297e-08
1.1052827437088e-10
8.70637029155613e-11
2.33872514774634e-11
1.22306538260135e-12
1.26376669733962e-14
4.23624889170382e-15
9.25284655437972e-15
0.554226154122698
0.706493295029802
0.604108069981454
0.395707323765
0.13649852391197
0.0117478585244631
0.000150759486150956
2.06998204281279e-07
8.67801633851131e-11
9.23820255477272e-11
3.05913221420958e-11
2.07054435139972e-12
1.91588671230642e-14
7.46541047542689e-15
8.30762589988279e-15
1.47302091045401
1.52199537857244
0.928848707027928
0.53854298089818
0.19855275830596
0.0187980804157186
0.00026964292211003
4.32953660971807e-07
4.16769839576811e-11
9.9292321028718e-11
3.86524428157263e-11
3.26203435641423e-12
3.79805170493222e-14
9.02275865953674e-15
9.31712219265351e-15
0.207659690451011
0.379377547449467
0.353303087739928
0.189419979796268
0.040655695350319
0.00210360009637399
1.65429772586285e-05
1.33643240092175e-08
1.33222265249488e-10
8.75631502565661e-11
1.67947143492152e-11
5.72910328287149e-13
3.42876912254502e-15
3.00458780087748e-15
5.87598664620064e-15
0.160131061877537
0.403899866155059
0.402016006923057
0.260782597667679
0.0794864919409777
0.00591484396227868
6.38490155967286e-05
6.99560688414441e-08
1.10455222248206e-10
8.70587893348921e-11
2.33763291569266e-11
1.2112907930556e-12
1.10151524675497e-14
1.08855291065373e-14
1.27697270573837e-14
0.585316681540548
0.670299941325295
0.580624479527099
0.379278819399762
0.13762565806544
0.0127267406125516
0.000165534576093358
2.17370615125932e-07
8.5743130165079e-11
9.23936185668311e-11
3.05838460050738e-11
2.05841586630739e-12
2.15688068102134e-14
1.65245573288975e-14
1.65663711837817e-14
1.53958322091634
1.53686650390569
0.914225294264522
0.521224351432762
0.195507799803771
0.0207513917134945
0.000309967855836802
4.74760740646913e-07
3.78143080211038e-11
9.92827945357923e-11
3.86553919703749e-11
3.25266594397384e-12
3.74451472237739e-14
1.85908920507883e-14
1.85544810908894e-14
0.209954554994546
0.390951889834505
0.356263159965763
0.188906369682089
0.0404340061403345
0.00210196170118717
1.66484891657552e-05
1.34895930293749e-08
1.33226573646077e-10
8.75776174233048e-11
1.68004335174295e-11
5.77128861606186e-13
1.28213173429098e-14
6.9364453820424e-15
3.22019330355791e-15
0.160233644016827
0.427629884837597
0.424339541647651
0.26710894667998
0.0783512861157764
0.00569318467713675
6.17934190033202e-05
6.93613478960733e-08
1.10529277219897e-10
8.70645428222398e-11
2.33872424901669e-11
1.22027856361756e-12
1.26453207094999e-14
4.35144699784829e-15
6.77350657104083e-15
0.554225945012002
0.706493388087138
0.604108219203283
0.395707503091547
0.136498563698943
0.0117478529530547
0.0001507592755365
2.06997791193299e-07
8.67809394899109e-11
9.2382977020331e-11
3.05907890610996e-11
2.06972426257937e-12
2.10344645742239e-14
6.1386388727142e-15
5.64923503935476e-15
1.47302078943182
1.52199538119199
0.928848719825968
0.538543070346361
0.198552848224865
0.0187980792497563
0.000269642548892705
4.32952528844461e-07
4.16770280696722e-11
9.92935343719647e-11
3.8651624606099e-11
3.26202771976119e-12
3.98287591997914e-14
8.55504065304026e-15
8.06174112475405e-15
1.68140793092817
2.04196457074337
1.24692182672002
0.643769087588644
0.249360434146172
0.0283807365904228
0.000454412446680192
7.58512472095542e-07
3.62834500741317e-11
1.05231359899302e-10
4.46244363342898e-11
4.38451473982197e-12
6.090962726282e-14
8.85235416265622e-15
9.209043769367e-15
1.52525698446632
2.14646683085463
1.43081932556616
0.737876910018992
0.291955730398473
0.0341931140400843
0.000558259393844475
9.71292846156515e-07
8.53205042801366e-11
1.10785591055529e-10
4.82418047267706e-11
5.10782285266722e-12
7.62359212618128e-14
8.26986600895589e-15
8.82845043180976e-15
1.41318492634444
2.10620319398965
1.52323932563152
0.802057381564649
0.321136693839631
0.037844725263406
0.00062000582366672
1.10386205552878e-06
1.21649724232564e-10
1.1381616766183e-10
5.0282575861505e-11
5.55185425045071e-12
8.60112560278511e-14
5.76546094076377e-15
6.972566531342e-15
1.5675305014168
1.93313188568062
1.2564183733787
0.662436801977903
0.256861903156262
0.0265511086469379
0.000399598561129336
6.83543956124539e-07
2.6449820765478e-11
1.05266302428896e-10
4.46204752594868e-11
4.37659075775806e-12
5.8366728767486e-14
1.38632159019684e-14
1.28972731097048e-14
1.46351413878342
2.06922317752669
1.42846809380324
0.746247332904624
0.298741938600305
0.033251843030214
0.000520622291733091
9.09495327643114e-07
7.57351495596609e-11
1.10808542015561e-10
4.82405057443576e-11
5.10178358574022e-12
7.52974536280488e-14
1.31053538262699e-14
1.27590130245335e-14
1.40629456615427
2.08889475404566
1.51700680184204
0.808612508906091
0.323594288267341
0.0377054618350123
0.000613915066427187
1.09285215969851e-06
1.19743568834092e-10
1.13819848932434e-10
5.02843058068986e-11
5.5515500530392e-12
8.60625408630353e-14
7.92818825221608e-15
8.4607912127436e-15
1.68140785567546
2.04196441294655
1.24692181977375
0.643769084675864
0.24936050519607
0.0283807386538487
0.000454412043830398
7.5851111495614e-07
3.62825707586635e-11
1.05231294335697e-10
4.46240130170188e-11
4.38541466991096e-12
6.15809077238626e-14
9.53466771132439e-15
8.69292623804541e-15
1.52525700239469
2.1464668355435
1.43081924992165
0.737876814244746
0.29195575968622
0.0341931186476009
0.000558259222885035
9.71292130720133e-07
8.53206544358102e-11
1.10785430636156e-10
4.82412989492227e-11
5.10834117784625e-12
7.65631250136574e-14
8.45641680825178e-15
8.99215102718669e-15
1.41318488008207
2.10620316224965
1.52323930607614
0.802057244574857
0.321136674137412
0.0378447289159317
0.000620005911830809
1.10386220270986e-06
1.21650164818888e-10
1.13815600507772e-10
5.02823284180284e-11
5.55191111308516e-12
8.62140023370952e-14
5.36077120194773e-15
6.76561307604698e-15
1.56752972724317
1.93312523814998
1.25641668788819
0.66243922925932
0.25686456520703
0.026551221817415
0.000399586384520322
6.83498536828349e-07
2.64389622512697e-11
1.05264436703947e-10
4.46184650010052e-11
4.3825719767988e-12
5.96244640597312e-14
9.54254933234e-15
9.62517492115403e-15
1.46351426651401
2.06921554282393
1.42846348594022
0.746247109307901
0.298743920310361
0.0332518967978645
0.000520611932118709
9.09458597951811e-07
7.57239337047172e-11
1.10807470403837e-10
4.82394054707492e-11
5.10700683230362e-12
7.55166057079677e-14
9.15980370516459e-15
8.49501914462065e-15
1.40629643180236
2.08889446203687
1.51700162382893
0.8086127056069
0.323594968868817
0.0377054846960391
0.000613911936683891
1.09283923006846e-06
1.19740145218745e-10
1.13817689771747e-10
5.02815442821749e-11
5.551986796554e-12
8.59924755621346e-14
7.67878701478243e-15
6.81899368012702e-15
1.68141031873045
2.04196956905348
1.24692184332137
0.64376914181228
0.249358295134345
0.0283806646119385
0.000454424294749874
7.58552860629172e-07
3.62918715106911e-11
1.05232435073329e-10
4.46269140187686e-11
4.37925349910864e-12
5.81892699234703e-14
1.42725910673489e-14
1.4676588110991e-14
1.52525659769197
2.14646666983401
1.43082171791902
0.737879877354359
0.291954868473818
0.034192967439709
0.000558264404330357
9.71314566147215e-07
8.5326868854759e-11
1.10784839389127e-10
4.82427697471725e-11
5.1038126160355e-12
7.49619511400463e-14
1.47889016756312e-14
1.33185954946553e-14
1.41318639403928
2.10620412307143
1.5232399781618
0.802061650504347
0.321137313529145
0.0378446125088339
0.000620003168268622
1.10385800845312e-06
1.21648710747021e-10
1.13816935072009e-10
5.02849857321779e-11
5.55210398117763e-12
8.58976650556842e-14
9.53594277636953e-15
7.38200276391889e-15
1.56752970332754
1.93312501829111
1.25641663159265
0.66243931451017
0.256864656861539
0.0265512253563532
0.000399585959184704
6.83496969229761e-07
2.64372334204311e-11
1.05265193138035e-10
4.46178527735987e-11
4.38327962836974e-12
6.02631673378681e-14
1.03162414345654e-14
1.01571554998339e-14
1.46351426941323
2.06921528716052
1.42846333055742
0.746247104146573
0.298743989485188
0.0332518986232331
0.000520611574200199
9.0945733240933e-07
7.57235090534701e-11
1.10807628873675e-10
4.82384234867361e-11
5.10683743793531e-12
7.58202689748479e-14
9.17766903431367e-15
9.05777604740486e-15
1.40629649143145
2.08889444898328
1.51700144637562
0.808612711428495
0.323594994019444
0.0377054856440238
0.000613911829039711
1.09283877673236e-06
1.19739918502731e-10
1.13817940397941e-10
5.02813632889035e-11
5.55137541965251e-12
8.60841709819011e-14
7.72241830648482e-15
8.03345850668556e-15
)
;

boundaryField
{
    inlet
    {
        type            calculated;
        value           nonuniform List<scalar> 
24
(
0.693523289986308
0.69352332392339
0.69352328972984
0.693523326145349
0.693523298470778
0.693523326208005
0.693523289986308
0.678941634037706
0.665028103002929
0.69352332392339
0.678941649058947
0.665028098607668
0.69352328972984
0.678941633785415
0.66502810286892
0.693523326145349
0.678941652834664
0.665028101520567
0.693523298470778
0.678941640720811
0.665028106847161
0.693523326208005
0.678941652996239
0.665028101679607
)
;
    }
    outlet
    {
        type            calculated;
        value           nonuniform List<scalar> 
156
(
0.207592075544385
0.379008199318824
0.348983900333454
0.183756414096602
0.0376378933767114
0.00185535281245712
1.39047404796331e-05
1.05493597745053e-08
3.31468337945708e-11
2.49232684745247e-11
5.09649327197418e-12
1.84512929083644e-13
1.8563116174797e-15
1.96933050200208e-15
2.05381846588403e-15
0.209874314111732
0.390587718886866
0.351812914172808
0.183213493280216
0.0374323148482804
0.00185336540626151
1.39879101195846e-05
1.06465113723471e-08
3.314181703667e-11
2.49243946333878e-11
5.09977009383246e-12
1.84261725416195e-13
4.68891143740206e-16
9.10324931812797e-16
2.58529183979275e-15
0.207592091735538
0.37900828551286
0.34898395044599
0.183756412861165
0.0376378857455432
0.00185535217494606
1.39047359291443e-05
1.05493568674717e-08
3.31469708585377e-11
2.49235667763522e-11
5.09638814760521e-12
1.83781290861142e-13
1.37018720618833e-15
1.91137761373131e-15
2.35188909530809e-15
0.209875221249958
0.390592472190609
0.35181560725911
0.18321381171034
0.0374321012766554
0.00185334619826667
1.39877918404536e-05
1.0646483377495e-08
3.31414841260602e-11
2.49238443871822e-11
5.09671788477866e-12
1.84378989177972e-13
2.03183031665339e-15
1.66451989699603e-15
1.84358562499294e-15
0.207591418211122
0.379005456599155
0.348982276820848
0.183756379498472
0.0376381045916365
0.00185537124923548
1.39048768398341e-05
1.05494261700116e-08
3.3147475917767e-11
2.49236488814666e-11
5.10113540299618e-12
1.83485745541123e-13
1.17240714690034e-15
1.31488453843519e-15
2.88195432581276e-15
0.209875248417939
0.390592627741019
0.351815694173729
0.183213819780942
0.0374320934521454
0.00185334553582141
1.39877880233082e-05
1.06464835289091e-08
3.31415665040693e-11
2.49239521538156e-11
5.09660334734141e-12
1.83423187063227e-13
1.73361002512216e-15
1.11312042679612e-15
1.89766405532862e-15
7.74564463861003e-16
2.38967199079339e-15
1.70526616560642e-15
2.30616810594595e-15
2.54548370643057e-15
2.37382215243631e-15
1.61965318874399e-15
1.77195320072965e-17
2.98157193400411e-15
4.37171059484605e-15
5.62890396237762e-15
3.69697590838282e-15
3.95236430197837e-15
2.36222706193369e-15
5.46183677882693e-16
3.06505226963578e-15
1.01283452070252e-15
1.80629348224921e-15
2.38482778017982e-15
2.49676379774282e-15
1.49062941020419e-15
5.68169450165167e-16
2.72372452206695e-15
1.9051235737091e-15
2.47189107131855e-15
2.38208585529567e-15
2.28939740635333e-15
1.34305236091486e-15
9.93298923033741e-17
2.88740396129402e-15
4.21953578056356e-15
5.89751348632775e-15
4.32030735463633e-15
4.61467537946154e-15
1.54950010130201e-15
4.98406796542759e-16
1.5892456023051e-15
9.02599478755801e-16
2.05296768689531e-15
2.68877754457316e-15
2.38571458221757e-15
1.93917207872024e-15
0.107018663298209
0.0297785123487244
0.00181085237637826
0.118689524826633
0.108599114919133
0.0332045098750796
0.0020742702119376
0.132185142221397
0.107018675909346
0.0297785308800441
0.00181084121536693
0.11868954455701
0.10859971970164
0.0332053237267242
0.00207423970720492
0.132185330915897
0.107018185147262
0.0297778839278844
0.00181115519724492
0.118688852795146
0.108599737943471
0.0332053501568396
0.00207423867130119
0.132185339365586
)
;
    }
    sides
    {
        type            calculated;
        value           nonuniform List<scalar> 
84
(
0.732529918410837
0.75024743551676
0.767344326521279
0.732529877086472
0.750247471342714
0.767344262998822
0.732529918455596
0.750247435536387
0.767344326007309
0.732529866266509
0.750247483220063
0.767344252668476
0.732529907858213
0.750247450767621
0.767344316863789
0.732529866464201
0.750247482657299
0.767344253811672
0.781918065146672
0.792332532671549
0.795695976562556
0.78191801098769
0.792332553216499
0.795696308776378
0.781918064798021
0.792332529563201
0.795695974846405
0.781918022421829
0.792332662451576
0.795696561755253
0.781918069602276
0.792332567705567
0.795695983189824
0.781918021178408
0.792332676357016
0.795696591604587
0.795121680605109
0.795123027866489
0.795121685122465
0.795123574311867
0.7951216353888
0.795123629451956
0.793569438317528
0.793568994846297
0.793569438833824
0.793569676474707
0.793569417350579
0.79356975613739
0.793193871939154
0.793192613828472
0.793193847397884
0.793192667772392
0.793194145557195
0.793192672577189
0.7946536132109
0.794654596366249
0.794653616429481
0.794654438586664
0.794653585551246
0.79465442788621
0.796131616637392
0.7961336092017
0.796131605609534
0.796133533696688
0.796131820414014
0.796133524646047
0.802758954356867
0.802742511894149
0.802758952052903
0.802742542754763
0.802759033219976
0.802742541490171
0.822868226592798
0.82280975378775
0.822868230886004
0.822809812072978
0.822868176037741
0.822809812248431
0.904861777202703
0.904666594167361
0.904861781751809
0.904666636173201
0.904861696807494
0.904666637120435
)
;
    }
}


// ************************************************************************* //
