/*--------------------------------*- C++ -*----------------------------------*\
  =========                 |
  \\      /  F ield         | OpenFOAM: The Open Source CFD Toolbox
   \\    /   O peration     | Website:  https://openfoam.org
    \\  /    A nd           | Version:  11
     \\/     M anipulation  |
\*---------------------------------------------------------------------------*/
FoamFile
{
    format      ascii;
    class       volScalarField;
    location    "0.0000500006";
    object      p;
}
// * * * * * * * * * * * * * * * * * * * * * * * * * * * * * * * * * * * * * //

dimensions      [1 -1 -2 0 0 0 0];

internalField   nonuniform List<scalar> 
900
(
759468.173550971
741480.56337575
724594.897826092
760820.19586176
742561.423923058
725471.640881471
761539.332444909
743482.693090087
726263.818517567
759468.156860919
741480.58406933
724594.891587919
760820.161745478
742561.497602274
725471.537610444
761539.341709367
743482.667412158
726263.854169282
759468.173464699
741480.563530174
724594.897558762
760820.195821638
742561.423866476
725471.641024658
761539.33228906
743482.693194864
726263.818252729
759468.157132263
741480.58658049
724594.891228479
760820.161750341
742561.496706917
725471.540057233
761539.341254905
743482.669724948
726263.856402628
759468.173426748
741480.567043339
724594.897138791
760820.197148364
742561.426939526
725471.642634372
761539.331136514
743482.693042247
726263.821386988
759468.157339229
741480.586552669
724594.891381987
760820.161969377
742561.49660374
725471.540324769
761539.341302629
743482.669883618
726263.856310708
708896.542803533
695597.140266485
687242.324020414
709708.73701807
696188.687858721
687593.739099538
710281.781866295
696544.609784335
687756.338505216
708896.658417837
695597.080032779
687242.073981103
709708.985175358
696188.537729044
687593.751653477
710281.711787945
696544.63083274
687756.390106842
708896.544375779
695597.14149512
687242.325768539
709708.737622413
696188.690054054
687593.740873702
710281.782370998
696544.611271441
687756.344884216
708896.664131136
695596.996313285
687241.870474435
709708.983705101
696188.478813829
687593.597271875
710281.710808796
696544.618195186
687756.351619274
708896.558103495
695597.121585629
687242.321003043
709708.743076636
696188.676043452
687593.728543119
710281.780998934
696544.59635037
687756.277825786
708896.663475805
695596.987008748
687241.846388815
709708.98289135
696188.471906638
687593.578486036
710281.710766427
696544.616171511
687756.347026056
681604.947609526
681791.233839904
681862.542294405
681604.106540123
681790.533523475
681862.673375103
681604.949857373
681791.232416454
681862.554460314
681603.656110185
681790.190257443
681862.6206379
681604.920087688
681791.233885954
681862.409468947
681603.611587976
681790.158488278
681862.616486966
676685.570170969
676755.392885465
676779.394991183
676686.444256641
676756.007453729
676779.843363126
676685.586974278
676755.402105094
676779.437444121
676686.110808852
676755.582003467
676779.869363339
676685.443875225
676755.355110826
676779.04696577
676686.064853244
676755.516868594
676779.868594008
671194.537725101
671251.678171913
671274.975031968
671195.467481526
671252.240808803
671274.820951451
671194.575342444
671251.701871129
671274.983868483
671195.505467484
671252.167961136
671274.815666812
671194.17428402
671251.468609955
671274.906428253
671195.505836132
671252.155321646
671274.812999619
664366.637848624
664341.253209911
664327.171476213
664365.70214978
664340.491400045
664327.271881663
664366.652124309
664341.258507137
664327.176126529
664365.748204335
664340.419161495
664327.272948135
664366.516337409
664341.229338979
664327.153721578
664365.747786535
664340.408860847
664327.268827936
658379.72273116
658430.922099007
658445.155093902
658378.057786533
658431.491148202
658444.453175282
658379.738155834
658430.932941507
658445.159292842
658378.027774064
658431.460049983
658444.456130134
658379.521743798
658430.774171135
658445.104128185
658378.025765987
658431.457782618
658444.455180892
649326.27431385
649438.972103483
649700.345467406
649336.942181476
649484.034747287
649704.841261002
649326.280956621
649438.976362921
649700.349819833
649336.855354352
649483.96839344
649704.790033082
649326.177933066
649438.903955787
649700.280656734
649336.850180384
649483.964357292
649704.786604951
635194.241694728
635278.766016464
635318.480068751
635242.648636052
635319.014156126
635320.870980714
635194.24591713
635278.76789686
635318.481573845
635242.546614794
635318.947029057
635320.825193026
635194.203888507
635278.750404327
635318.468625859
635242.540976291
635318.943293676
635320.82286034
598667.347254085
598863.14261901
598606.375791765
599008.246362867
599023.260192789
598562.157854808
598667.351760401
598863.145230802
598606.378881632
599008.183209564
599023.205825109
598562.13051581
598667.304634583
598863.135720211
598606.346719224
599008.178997803
599023.202705506
598562.128604281
795652.624967843
801024.647074228
801756.739609519
795652.616511861
801024.664714905
801756.734339781
795652.624949798
801024.64710028
801756.739638496
795652.618876579
801024.662794728
801756.735018924
795652.625541301
801024.647522244
801756.739433818
795652.618933499
801024.662700377
801756.735035257
89797.7246009322
103226.574279842
110255.461659328
110297.597619337
104148.042254243
101511.648807271
101326.711741199
101325.001512355
101324.999977752
101324.999986969
101324.999997459
101324.999999911
101325
101324.999999999
101324.999999999
76679.5267949078
109220.622634076
131107.268423085
130183.38961271
111329.890654594
102110.202422561
101333.752772937
101325.009564014
101324.999984499
101324.99998835
101324.999996813
101324.99999983
101324.999999999
101324.999999999
101325
69514.2847938069
115685.855711508
144224.064150793
148664.033312893
119878.624805889
103047.731584368
101347.873239041
101325.029846662
101324.999987159
101324.999987976
101324.999995867
101324.999999713
101324.999999997
101324.999999999
101325
70383.7146189291
110430.711627144
159944.725262989
166684.162148759
129220.92083499
104190.737680251
101368.245804568
101325.065931194
101324.999993958
101324.999988127
101324.999994894
101324.999999551
101324.999999994
101324.999999999
101325
90011.4258564602
104729.430704413
110456.513747533
110252.037498924
104129.525453276
101512.093750722
101326.729036687
101325.001529614
101324.999977753
101324.999986969
101324.999997457
101324.999999909
101324.999999997
101324.999999997
101324.999999998
77428.6825213028
119265.917860987
136084.329656793
131165.952524082
111117.312672295
102076.037335073
101333.448425019
101325.00948696
101324.999984512
101324.999988351
101324.999996815
101324.999999831
101324.999999997
101324.999999998
101324.999999999
68230.1789676073
138735.76443244
162904.584484152
154632.327412235
119379.12483307
102865.427520827
101345.378683212
101325.0282586
101324.999987241
101324.999987972
101324.999995869
101324.999999713
101324.999999996
101324.999999998
101324.999999999
72042.071556573
133664.718621031
187551.677666191
181291.277529955
128849.220033787
103783.481619536
101361.201307306
101325.058836651
101324.999994021
101324.99998812
101324.999994897
101324.999999554
101324.999999994
101324.999999999
101325
89797.7267270857
103226.588157415
110255.468274886
110297.598207115
104148.041478919
101511.648734676
101326.711740672
101325.001512355
101324.999977752
101324.999986969
101324.999997459
101324.999999911
101324.999999999
101324.999999999
101324.999999999
76679.5277843389
109220.673736359
131107.309771445
130183.403967571
111329.889840335
102110.201873566
101333.752762986
101325.009564002
101324.999984499
101324.99998835
101324.999996814
101324.999999831
101324.999999999
101325
101325
69514.256964452
115685.903120081
144224.13578979
148664.083127627
119878.631071051
103047.730354473
101347.873198396
101325.029846582
101324.999987159
101324.999987975
101324.999995867
101324.999999713
101324.999999997
101325
101325
70383.6984596189
110430.727278152
159944.774660976
166684.229010165
129220.944253336
104190.736895147
101368.245740437
101325.065931013
101324.999993958
101324.999988127
101324.999994894
101324.999999551
101324.999999994
101325
101325
90011.507873051
104729.872859511
110456.834370916
110252.08594146
104129.502924747
101512.091539805
101326.729022873
101325.001529614
101324.999977752
101324.999986969
101324.999997459
101324.999999911
101325
101324.999999999
101324.999999999
77428.8303281919
119267.458013181
136085.771273735
131166.547263566
111117.298122909
102076.022390134
101333.448173425
101325.009486675
101324.99998451
101324.999988349
101324.999996814
101324.999999831
101324.999999999
101324.999999999
101325
68229.6462078393
138736.827606396
162906.090831194
154633.761877373
119379.336879575
102865.395635118
101345.377638969
101325.028256493
101324.99998724
101324.999987972
101324.999995868
101324.999999713
101324.999999997
101324.999999999
101325
72041.828450549
133664.483259338
187551.997838505
181293.018317022
128850.031428503
103783.46713094
101361.199548364
101325.058831159
101324.99999402
101324.99998812
101324.999994895
101324.999999551
101324.999999994
101324.999999999
101325
89797.6528405191
103226.139830493
110255.254058781
110297.573857395
104148.063905679
101511.650922943
101326.711757238
101325.001512361
101324.999977753
101324.999986969
101324.999997456
101324.999999909
101324.999999997
101324.999999997
101324.999999998
76679.472276218
109219.083037638
131106.029500841
130182.952536918
111329.909142549
102110.218128376
101333.753061678
101325.009564355
101324.9999845
101324.999988352
101324.999996815
101324.999999831
101324.999999997
101324.999999998
101324.999999999
69515.049707131
115684.434141592
144221.934726633
148662.546515556
119878.429785757
103047.766586371
101347.874416341
101325.029848968
101324.99998716
101324.999987976
101324.999995869
101324.999999713
101324.999999996
101324.999999998
101324.999999999
70384.1406703932
110430.244974688
159943.261618119
166682.174932473
129220.215905735
104190.759369771
101368.247673411
101325.065936481
101324.999993959
101324.999988128
101324.999994895
101324.999999554
101324.999999994
101324.999999999
101325
90011.5104754341
104729.887294534
110456.844828501
110252.087316475
104129.502107241
101512.091464197
101326.729022436
101325.001529614
101324.999977752
101324.999986969
101324.999997459
101324.999999912
101324.999999999
101325
101325
77428.8349652483
119267.510444417
136085.8203626
131166.56719834
111117.297415644
102076.02186145
101333.448164697
101325.009486666
101324.99998451
101324.999988349
101324.999996814
101324.999999831
101324.999999999
101324.999999999
101325
68229.6270752805
138736.86481929
162906.143223045
154633.810897345
119379.343730562
102865.39448712
101345.377602389
101325.02825642
101324.99998724
101324.999987972
101324.999995868
101324.999999713
101324.999999997
101325
101325
72041.8197907053
133664.476065302
187552.010371035
181293.07853688
128850.058780152
103783.466558026
101361.199486593
101325.058830969
101324.99999402
101324.999988119
101324.999994895
101324.999999552
101324.999999994
101325
101325
172778.307764743
100789.684999413
157490.147534463
182632.783657155
137667.060993376
105244.304652645
101388.142763928
101325.10527503
101325.000002382
101324.999988355
101324.999994263
101324.999999407
101324.999999991
101324.999999999
101325
229450.350119337
105404.410581875
154749.509349981
192434.671238942
143441.853681752
105943.342666041
101401.559235146
101325.133844884
101325.000008752
101324.999988498
101324.99999394
101324.999999319
101324.999999989
101324.999999999
101325
279961.716163571
119373.188570666
162605.437248054
203803.372143051
147948.239650178
106348.970467511
101408.610769837
101325.150573954
101325.000013168
101324.999988504
101324.999993704
101324.99999926
101324.999999987
101324.999999999
101325
204603.543237875
122330.091158662
182106.784995506
201408.769876554
139000.715694639
104789.526285793
101378.115235951
101325.092039937
101325.000002181
101324.999988345
101324.999994265
101324.999999409
101324.999999991
101324.999999999
101325
260625.519821736
124906.119036662
175747.914848868
208373.248395203
145233.877002255
105645.835512361
101393.517625872
101325.121527928
101325.000008465
101324.999988492
101324.999993941
101324.999999321
101324.999999988
101324.999999999
101325
287212.773497699
128654.793630369
172230.106853603
208305.00574727
148451.372073328
106315.09011643
101407.40251052
101325.148373505
101325.000013258
101324.999988503
101324.999993704
101324.99999926
101324.999999987
101324.999999999
101325
172778.30110409
100789.690874443
157490.143648416
182632.825056014
137667.091777373
105244.30503666
101388.142707473
101325.105274822
101325.000002382
101324.999988355
101324.999994263
101324.999999407
101324.999999991
101324.999999999
101325
229450.336475847
105404.404662684
154749.503457312
192434.685964789
143441.872210471
105943.343349896
101401.559209939
101325.133844765
101325.000008752
101324.999988498
101324.99999394
101324.999999319
101324.999999989
101324.999999999
101325
279961.699697203
119373.182688636
162605.422051343
203803.352398817
147948.236929112
106348.970770507
101408.610778594
101325.150573973
101325.000013168
101324.999988504
101324.999993704
101324.99999926
101324.999999987
101324.999999999
101325
204603.510106643
122330.18386581
182106.803564762
201409.937611743
139001.839659435
104789.534902156
101378.113278103
101325.092032399
101325.00000218
101324.999988345
101324.999994265
101324.999999407
101324.999999991
101324.999999999
101325
260625.303567471
124906.662107466
175748.603626944
208374.975708764
145234.735221186
105645.836389398
101393.515841357
101325.121521358
101325.000008463
101324.999988493
101324.99999394
101324.99999932
101324.999999989
101324.999999999
101325
287211.743750121
128654.635950709
172230.335008947
208304.488030909
148451.484827096
106315.098143051
101407.401932959
101325.148370888
101325.000013258
101324.999988503
101324.999993704
101324.99999926
101324.999999987
101324.999999999
101325
172778.464680511
100789.508746662
157490.346765664
182631.587874214
137666.137929223
105244.291370511
101388.144418876
101325.105281194
101325.000002382
101324.999988355
101324.999994263
101324.999999408
101324.999999991
101324.999999999
101325
229450.748850529
105404.605574185
154749.769778207
192434.315980648
143441.304164892
105943.320099353
101401.559966725
101325.133848501
101325.000008753
101324.999988498
101324.99999394
101324.99999932
101324.999999988
101324.999999999
101325
279962.223065903
119373.374289647
162605.926025881
203804.013461931
147948.332590425
106348.960949591
101408.610499727
101325.15057344
101325.000013168
101324.999988504
101324.999993704
101324.99999926
101324.999999987
101324.999999999
101325
204603.509426605
122330.187590726
182106.805891608
201409.978656105
139001.877807279
104789.535127028
101378.113209668
101325.092032139
101325.00000218
101324.999988345
101324.999994265
101324.999999407
101324.999999991
101324.999999999
101325
260625.296604748
124906.680500191
175748.627397485
208375.03500353
145234.76438457
105645.836377915
101393.5157796
101325.121521132
101325.000008463
101324.999988492
101324.99999394
101324.999999319
101324.999999989
101324.999999999
101325
287211.709770082
128654.630664142
172230.342473758
208304.47130122
148451.488737157
106315.098423645
101407.401912927
101325.148370797
101325.000013258
101324.999988503
101324.999993704
101324.99999926
101324.999999987
101324.999999999
101325
)
;

boundaryField
{
    inlet
    {
        type            timeVaryingMappedFixedValue;
        fieldTable      p;
        value           nonuniform List<scalar> 
24
(
800000.000002593
800000.000002593
800000.000002593
800000.000002593
800000.000002593
800000.000002593
800000.000002593
800000.000002593
800000.000002593
800000.000002593
800000.000002593
800000.000002593
800000.000002593
800000.000002593
800000.000002593
800000.000002593
800000.000002593
800000.000002593
800000.000002593
800000.000002593
800000.000002593
800000.000002593
800000.000002593
800000.000002593
)
;
    }
    outlet
    {
        type            freestreamPressure;
        freestreamValue uniform 101325;
        supersonic      false;
        value           nonuniform List<scalar> 
156
(
101322.383713421
101326.65324521
101433.758716967
101592.232479259
101534.142039265
101346.996913458
101325.272725191
101325.000317656
101324.999983279
101324.999990681
101324.999998229
101324.999999939
101325
101324.999999999
101324.999999999
101321.708742115
101328.094497557
101438.963196965
101593.100692753
101532.822108745
101347.10159021
101325.276096345
101325.000321492
101324.99998328
101324.999990682
101324.999998229
101324.999999938
101324.999999998
101324.999999998
101324.999999999
101322.383706562
101326.653258471
101433.758827133
101592.232556249
101534.141986523
101346.996905714
101325.272725126
101325.000317655
101324.99998328
101324.999990681
101324.999998229
101324.99999994
101324.999999999
101325
101325
101321.708512234
101328.0949585
101438.967762277
101593.103870522
101532.820316646
101347.101316787
101325.276094276
101325.000321493
101324.999983279
101324.999990681
101324.999998229
101324.99999994
101325
101324.999999999
101324.999999999
101322.383936428
101326.652830829
101433.755319107
101592.229988267
101534.143530387
101346.997143012
101325.272727221
101325.000317656
101324.999983281
101324.999990682
101324.999998229
101324.999999938
101324.999999998
101324.999999998
101324.999999999
101321.708505136
101328.094973722
101438.967912794
101593.10396855
101532.82025221
101347.101307572
101325.276094212
101325.000321493
101324.999983279
101324.999990681
101324.99999823
101324.99999994
101324.999999999
101325
101325
101324.999999999
101325
101325
101325
101325
101325
101325
101324.999999998
101324.999999999
101324.999999999
101325
101325
101325
101325
101324.999999999
101325
101325
101325
101325
101325
101325
101324.999999999
101325
101325
101325
101325
101325
101325
101324.999999998
101324.999999999
101324.999999999
101325
101325
101325
101325
101325
101325
101325
101325
101325
101325
101325
95735.0050687228
81234.7061148783
69609.0548611461
72409.9102702291
95861.1508916642
82358.3605815217
68350.7861022041
74311.6836617459
95735.0063433386
81234.7111422637
69609.0265890837
72409.8962431074
95861.1979362493
82358.6104599843
68350.2550583768
74311.4749774157
95734.9623301358
81234.5305142562
69609.8316546072
72410.2755181154
95861.1994232469
82358.6185569327
68350.2359885323
74311.4675456833
)
;
    }
    sides
    {
        type            zeroGradient;
    }
}


// ************************************************************************* //
