/*--------------------------------*- C++ -*----------------------------------*\
  =========                 |
  \\      /  F ield         | OpenFOAM: The Open Source CFD Toolbox
   \\    /   O peration     | Website:  https://openfoam.org
    \\  /    A nd           | Version:  11
     \\/     M anipulation  |
\*---------------------------------------------------------------------------*/
FoamFile
{
    format      ascii;
    class       volScalarField;
    location    "0.0000500006";
    object      rho;
}
// * * * * * * * * * * * * * * * * * * * * * * * * * * * * * * * * * * * * * //

dimensions      [1 -3 0 0 0 0 0];

internalField   nonuniform List<scalar> 
900
(
1.40256285909143
1.40079893493321
1.40035677123538
1.40555807474588
1.4031752619704
1.40220607817509
1.40764511282346
1.40551709477973
1.40407514709599
1.40256282341906
1.40079897824821
1.40035676315578
1.40555801163495
1.40317538501888
1.40220592832454
1.40764512619554
1.40551705424753
1.4040752039194
1.40256285900309
1.40079893524535
1.40035677089326
1.40555807466275
1.40317526190277
1.40220607842426
1.40764511253895
1.40551709494032
1.40407514668397
1.40256282199988
1.40079898184133
1.40035676247666
1.40555801202994
1.40317538406427
1.40220593221174
1.40764512609671
1.40551705844227
1.40407520730578
1.40256285687709
1.40079894020939
1.40035676941484
1.40555807535221
1.40317526591157
1.40220608011201
1.40764511076986
1.40551709475558
1.40407515120652
1.4025628222844
1.40079898170746
1.40035676264049
1.40555801240054
1.40317538385935
1.40220593254192
1.40764512620697
1.40551705869806
1.40407520713255
1.40608956979892
1.42009111847793
1.44409059908633
1.4076454001222
1.42119096977461
1.44474531709255
1.40899224223491
1.42202892056416
1.44515467125884
1.40608974284154
1.4200910285711
1.44409018228516
1.40764574385902
1.42119075332366
1.44474533837781
1.40899211498503
1.42202896024261
1.44515476550903
1.40608957221269
1.42009112048705
1.4440906018147
1.40764540104882
1.4211909732229
1.44474532050747
1.40899224295907
1.42202892284441
1.44515468184329
1.40608974894385
1.42009089353374
1.44408983984072
1.40764573935564
1.4211906616213
1.44474509419047
1.40899211159029
1.42202894485758
1.44515471885367
1.40608959051549
1.42009108919789
1.44409059350055
1.40764540627925
1.42119095013269
1.44474529295169
1.40899223807093
1.42202889913188
1.44515456841698
1.40608974766958
1.42009087834061
1.44408979924577
1.40764573790546
1.42119065072317
1.44474506446095
1.40899211144358
1.42202894215416
1.44515471336283
1.47680119300336
1.47714919975247
1.4773357523474
1.47679969190536
1.47714810915002
1.47733607539047
1.47680119593557
1.47714919879526
1.47733577416528
1.47679890180451
1.47714754660114
1.47733602698032
1.47680115455776
1.47714918478738
1.47733551513985
1.47679882311798
1.4771474941754
1.47733602387554
1.51566211958713
1.51579622870916
1.51586209003631
1.51566355208996
1.51579727589478
1.51586285553458
1.515662146263
1.51579624713622
1.51586216675414
1.51566288835255
1.51579654648686
1.51586295585917
1.51566192212326
1.51579613933582
1.51586145559608
1.51566279903781
1.51579643509258
1.51586296152277
1.56007105802221
1.56017504950039
1.56022150358433
1.56007269894413
1.56017607219842
1.56022123978881
1.56007112499321
1.56017509390611
1.56022152080102
1.56007267982981
1.56017591948862
1.56022124787524
1.56007040533203
1.56017465093356
1.56022136550469
1.56007267141361
1.5601758948171
1.56022124523192
1.6097956852558
1.60974565263686
1.60971384964903
1.6097942335379
1.60974434419098
1.60971399638204
1.60979571312282
1.60974566393623
1.6097138583576
1.60979425794511
1.60974418251016
1.60971399323588
1.60979543573793
1.60974558698218
1.60971381429357
1.60979425084527
1.60974416049517
1.60971398533374
1.67028980101088
1.67037956056882
1.67038986997726
1.67028614189739
1.67038006630458
1.67038820639955
1.67028983249314
1.67037958165726
1.67038987587149
1.67028604624804
1.6703799907283
1.67038822948626
1.67028938210996
1.67037926781797
1.67038980038132
1.67028603864151
1.67037998472436
1.67038822896473
1.75467590919457
1.75488324728089
1.75536420442995
1.75467944449838
1.75495879086483
1.75537128242464
1.75467592517822
1.7548832575306
1.75536421271053
1.75467924558822
1.75495864068712
1.75537117823103
1.75467566902911
1.75488307741269
1.7553640757077
1.75467923352415
1.75495863153244
1.75537117150846
1.85634598076221
1.85651556756357
1.85671083143794
1.85649769013333
1.85666660538613
1.85675139559403
1.85634599251052
1.85651557335781
1.85671083469322
1.8564974128747
1.8566664189935
1.85675127681136
1.85634584124743
1.85651548831102
1.8567107938188
1.856497398306
1.85666640936243
1.85675127143812
1.98058920377314
1.98191462639896
1.98218406406941
1.98185368404436
1.98252282079493
1.98216501118017
1.98058921744348
1.98191463402571
1.98218407170546
1.98185346370989
1.9825226360373
1.98216491593161
1.98058900964834
1.98191456283514
1.98218398243669
1.9818534503049
1.98252262663898
1.98216491057953
1.42648507357655
1.43661277539446
1.43831503099963
1.42648506183962
1.43661279348259
1.43831502112436
1.42648507359854
1.43661277541833
1.4383150310154
1.42648506402032
1.43661279149808
1.43831502276481
1.42648507346233
1.43661277582566
1.43831503083317
1.42648506405201
1.43661279140052
1.43831502282152
1.02529674386357
1.12743093206563
1.19226048762843
1.19905360360208
1.15810234591704
1.1393250552364
1.13797488744203
1.13796223792661
1.13796222643533
1.13796222650993
1.13796222659389
1.13796222661375
1.13796222661448
1.13796222661448
1.13796222661448
0.877855155397098
1.10712575020167
1.31541027878123
1.34846571558978
1.21875208058065
1.14444013412363
1.13803336818952
1.13796230288196
1.13796222649258
1.13796222652302
1.13796222658971
1.13796222661317
1.13796222661448
1.13796222661448
1.13796222661448
0.734289924403307
1.03578091941782
1.33700080485114
1.44702171471489
1.27916303456632
1.151889281941
1.13814730272867
1.13796246466329
1.13796222651411
1.13796222652027
1.13796222658198
1.13796222661222
1.13796222661446
1.13796222661448
1.13796222661447
0.556657186789423
0.919628091236287
1.40492381739204
1.53768744738976
1.33785635212569
1.16047577696744
1.1383102570075
1.1379627560293
1.13796222656732
1.13796222652074
1.13796222657404
1.13796222661092
1.13796222661444
1.13796222661447
1.13796222661447
1.02716391128874
1.13900132701362
1.19237780680083
1.19855485149843
1.15801268363271
1.13933190407933
1.13797503637701
1.13796223806013
1.13796222643537
1.13796222650996
1.13796222659392
1.13796222661377
1.13796222661449
1.13796222661449
1.13796222661449
0.882708654471625
1.16466427596247
1.3464189220327
1.3561219382225
1.21734624381501
1.14416126235375
1.13803086084498
1.13796230224412
1.13796222649272
1.13796222652307
1.13796222658976
1.13796222661322
1.1379622266145
1.1379622266145
1.13796222661449
0.733804742820042
1.15923378031922
1.44664102150188
1.48638313591768
1.2763689525603
1.15041993875893
1.13812684194052
1.1379624518224
1.1379622265148
1.13796222652027
1.13796222658203
1.13796222661225
1.13796222661447
1.13796222661449
1.13796222661448
0.589213169904464
1.03705666067295
1.5519079242458
1.62453891915337
1.33642061761892
1.15728372255427
1.13825322625601
1.13796269894358
1.13796222656789
1.13796222652068
1.13796222657407
1.13796222661095
1.13796222661444
1.13796222661447
1.13796222661448
1.02529676285891
1.12743102584988
1.19226052400886
1.19905360465152
1.15810234047234
1.13932505472008
1.13797488743831
1.13796223792661
1.13796222643534
1.13796222650993
1.13796222659389
1.13796222661375
1.13796222661447
1.13796222661448
1.13796222661448
0.87785515402764
1.10712603608429
1.3154105152468
1.34846581191725
1.21875207614612
1.14444012967512
1.13803336810892
1.13796230288187
1.13796222649258
1.13796222652302
1.13796222658971
1.13796222661317
1.13796222661448
1.13796222661448
1.13796222661449
0.734289785120981
1.03578112297659
1.33700117583546
1.44702202658841
1.27916308454915
1.1518892719613
1.13814730239741
1.13796246466265
1.13796222651411
1.13796222652027
1.13796222658199
1.13796222661222
1.13796222661446
1.13796222661448
1.13796222661447
0.556657193466886
0.919628154862083
1.40492406056022
1.53768785520485
1.33785651462494
1.16047576998103
1.13831025648214
1.13796275602785
1.13796222656732
1.13796222652074
1.13796222657404
1.13796222661092
1.13796222661443
1.13796222661447
1.13796222661447
1.02716465524286
1.13900441980267
1.19237986584045
1.19855511722166
1.15801252541113
1.13933188820035
1.13797503627977
1.13796223806009
1.13796222643533
1.13796222650993
1.13796222659389
1.13796222661375
1.13796222661448
1.13796222661448
1.13796222661448
0.882709522325957
1.1646727183759
1.346428132587
1.35612626194401
1.2173461178189
1.14416113781801
1.13803085880793
1.13796230224184
1.13796222649267
1.13796222652302
1.13796222658971
1.13796222661317
1.13796222661448
1.13796222661448
1.13796222661448
0.733802371506506
1.15923966614403
1.44665001144869
1.48639267000998
1.27637042051834
1.15041967004443
1.1381268334567
1.13796245180561
1.13796222651476
1.13796222652024
1.13796222658199
1.13796222661222
1.13796222661446
1.13796222661448
1.13796222661447
0.589214736754154
1.037055690177
1.55190961667623
1.62454955905707
1.33642605546301
1.15728358007481
1.1382532119402
1.13796269889955
1.13796222656787
1.13796222652068
1.13796222657405
1.13796222661092
1.13796222661444
1.13796222661447
1.13796222661447
1.0252961171677
1.12742798552289
1.19225932474242
1.19905352521253
1.15810249751403
1.13932507030392
1.13797488755571
1.13796223792669
1.13796222643538
1.13796222650997
1.13796222659392
1.13796222661378
1.13796222661449
1.13796222661449
1.13796222661449
0.87785499144018
1.10711713781213
1.31540320787223
1.34846278097784
1.21875216675122
1.14444026135752
1.13803337052919
1.13796230288471
1.13796222649263
1.13796222652307
1.13796222658977
1.13796222661322
1.1379622266145
1.1379622266145
1.13796222661449
0.734293591130846
1.03577474235396
1.33698979094732
1.44701241550796
1.27916148278891
1.15188956598076
1.13814731232668
1.13796246468176
1.13796222651415
1.1379622265203
1.13796222658203
1.13796222661225
1.13796222661447
1.13796222661449
1.13796222661448
0.556656627349521
0.919626068817389
1.40491657182394
1.53767534345291
1.33785146664143
1.16047597189181
1.13831027232292
1.13796275607181
1.13796222656734
1.13796222652075
1.13796222657406
1.13796222661095
1.13796222661444
1.13796222661447
1.13796222661448
1.02716467916389
1.13900452051023
1.19237993245224
1.19855512425326
1.15801251966778
1.1393318876591
1.13797503627672
1.13796223806009
1.13796222643533
1.13796222650993
1.13796222659389
1.13796222661375
1.13796222661447
1.13796222661448
1.13796222661449
0.882709548647359
1.16467300558361
1.34642844671221
1.3561264070429
1.21734611188299
1.14416113341788
1.13803085873729
1.13796230224177
1.13796222649268
1.13796222652302
1.13796222658972
1.13796222661318
1.13796222661448
1.13796222661448
1.13796222661449
0.73380228256171
1.15923986994365
1.44665032403223
1.48639299597062
1.27637046778513
1.15041966039551
1.1381268331596
1.13796245180503
1.13796222651476
1.13796222652024
1.13796222658199
1.13796222661222
1.13796222661446
1.13796222661448
1.13796222661448
0.589214786550335
1.03705565850497
1.55190968255407
1.62454992723894
1.33642623866164
1.15728357459769
1.13825321143771
1.13796269889802
1.13796222656787
1.13796222652068
1.13796222657405
1.13796222661093
1.13796222661443
1.13796222661447
1.13796222661447
0.896670031463562
0.928919555423591
1.39698158925443
1.62639426486134
1.38277792912582
1.16752075378077
1.13846378452103
1.13796307585301
1.13796222663393
1.1379622265222
1.13796222656901
1.13796222660978
1.13796222661441
1.13796222661447
1.13796222661447
1.19404334310235
1.01372659272928
1.41230692406282
1.68598206631847
1.41102483524277
1.17144842237066
1.13855949580948
1.13796330727197
1.13796222668563
1.13796222652332
1.13796222656647
1.13796222660909
1.13796222661439
1.13796222661447
1.13796222661447
1.43174028657066
1.12455973419325
1.49266657054139
1.75619396892785
1.43417758531175
1.17348121722652
1.13860599378103
1.13796344154346
1.13796222672192
1.1379622265234
1.13796222656461
1.13796222660861
1.13796222661437
1.13796222661447
1.13796222661447
1.03866162064703
1.05841854964603
1.52646703390099
1.73060687799759
1.39261534058018
1.16416066474068
1.13838444952162
1.13796296916123
1.13796222663235
1.13796222652212
1.13796222656902
1.1379622266098
1.13796222661441
1.13796222661447
1.13796222661448
1.32635096745207
1.14173870980479
1.5355230530611
1.77767818186464
1.42165678665844
1.16926810874542
1.13849723813234
1.13796320862154
1.13796222668333
1.13796222652328
1.13796222656647
1.1379622266091
1.13796222661439
1.13796222661447
1.13796222661447
1.45904850150921
1.18564159774182
1.55294403993429
1.78244555062416
1.43699661238636
1.17323681520639
1.13859686963249
1.13796342402213
1.13796222672262
1.13796222652339
1.13796222656461
1.13796222660862
1.13796222661437
1.13796222661447
1.13796222661447
0.896670017156774
0.928919555148795
1.3969815234582
1.62639451770166
1.38277812145687
1.16752075515875
1.13846378406349
1.13796307585134
1.13796222663393
1.1379622265222
1.13796222656901
1.13796222660978
1.13796222661441
1.13796222661447
1.13796222661447
1.19404329569787
1.01372652515172
1.41230684407855
1.68598215447997
1.41102495111814
1.17144842670733
1.13855949561473
1.13796330727101
1.13796222668564
1.13796222652333
1.13796222656647
1.13796222660909
1.13796222661439
1.13796222661447
1.13796222661447
1.43174022987391
1.12455964680738
1.49266643238739
1.75619384806136
1.43417757252889
1.17348121950336
1.13860599384476
1.13796344154361
1.13796222672192
1.1379622265234
1.13796222656461
1.13796222660861
1.13796222661437
1.13796222661447
1.13796222661447
1.03866196810379
1.05841802765208
1.52646662577685
1.73061377327227
1.39262229659146
1.16416067906064
1.13838443373812
1.13796296910061
1.13796222663235
1.13796222652212
1.13796222656902
1.13796222660978
1.13796222661441
1.13796222661447
1.13796222661447
1.32634951997781
1.14174104646292
1.5355270294684
1.77768742842414
1.42166192162835
1.1692680746917
1.13849722396552
1.13796320856863
1.13796222668333
1.13796222652328
1.13796222656647
1.13796222660909
1.13796222661439
1.13796222661447
1.13796222661447
1.45904349920902
1.1856447884729
1.55294739541788
1.78244313677482
1.43699722768804
1.17323686294953
1.13859686513177
1.13796342400108
1.13796222672262
1.13796222652339
1.13796222656461
1.13796222660862
1.13796222661437
1.13796222661447
1.13796222661447
0.89667016389318
0.928919473991512
1.39698408744291
1.62638696689972
1.38277217804579
1.16752069992362
1.13846379794211
1.13796307590264
1.13796222663393
1.1379622265222
1.137962226569
1.13796222660979
1.13796222661441
1.13796222661447
1.13796222661448
1.19404462677378
1.01372872380272
1.41230981891215
1.68597993414139
1.41102140578165
1.17144827840349
1.13855950147106
1.13796330730098
1.13796222668564
1.13796222652332
1.13796222656647
1.1379622266091
1.13796222661439
1.13796222661447
1.13796222661448
1.43174200636059
1.12456242050831
1.49267087823582
1.75619787916026
1.43417804147064
1.173481146373
1.13860599180623
1.13796344153934
1.13796222672192
1.1379622265234
1.13796222656461
1.13796222660862
1.13796222661437
1.13796222661447
1.13796222661447
1.03866198197929
1.05841801340501
1.52646662093227
1.73061401531206
1.39262253259763
1.16416067902415
1.13838443318665
1.13796296909852
1.13796222663235
1.13796222652212
1.13796222656902
1.13796222660978
1.13796222661441
1.13796222661447
1.13796222661447
1.3263494741293
1.14174112764362
1.53552716794475
1.7776877471072
1.42166209586155
1.16926807318635
1.13849722347518
1.13796320856681
1.13796222668332
1.13796222652328
1.13796222656648
1.13796222660909
1.13796222661439
1.13796222661447
1.13796222661448
1.45904333505487
1.18564489393557
1.55294750760418
1.78244306032249
1.43699724890173
1.17323686459669
1.13859686497547
1.13796342400035
1.13796222672261
1.13796222652339
1.13796222656461
1.13796222660861
1.13796222661437
1.13796222661447
1.13796222661447
)
;

boundaryField
{
    inlet
    {
        type            calculated;
        value           nonuniform List<scalar> 
24
(
1.41862913443513
1.41862913443513
1.41862913443513
1.41862913443513
1.41862913443513
1.41862913443513
1.41862913443513
1.41862913443513
1.41862913443513
1.41862913443513
1.41862913443513
1.41862913443513
1.41862913443513
1.41862913443513
1.41862913443513
1.41862913443513
1.41862913443513
1.41862913443513
1.41862913443513
1.41862913443513
1.41862913443513
1.41862913443513
1.41862913443513
1.41862913443513
)
;
    }
    outlet
    {
        type            calculated;
        value           nonuniform List<scalar> 
156
(
1.15667082707159
1.10647406612387
1.09685143675265
1.1045877265033
1.12918567416747
1.13749516717876
1.13795897746743
1.13796222481754
1.1379622264267
1.13796222650982
1.13796222659459
1.1379622266138
1.13796222661448
1.13796222661448
1.13796222661449
1.15604853123386
1.10202636673512
1.09509437778985
1.10460485412766
1.12927809054936
1.13749787040309
1.13795897146649
1.13796222480542
1.1379622264267
1.13796222650983
1.13796222659459
1.13796222661379
1.13796222661446
1.13796222661446
1.13796222661447
1.15667082118031
1.10647401082261
1.0968514063214
1.10458772277002
1.12918567662856
1.13749516737721
1.13795897746876
1.13796222481754
1.1379622264267
1.13796222650982
1.1379622265946
1.1379622266138
1.13796222661447
1.13796222661448
1.13796222661449
1.15604831546478
1.10202474050535
1.09509316468504
1.10460466134824
1.12927815945111
1.13749787587288
1.13795897149673
1.1379622248054
1.13796222642669
1.13796222650982
1.1379622265946
1.1379622266138
1.13796222661448
1.13796222661448
1.13796222661449
1.15667104226221
1.10647578863378
1.09685237405749
1.10458785473249
1.12918560520236
1.13749516145516
1.13795897742836
1.13796222481756
1.13796222642671
1.13796222650983
1.13796222659459
1.13796222661379
1.13796222661446
1.13796222661446
1.1379622266145
1.1560483089819
1.10202468720947
1.09509312468111
1.10460465556242
1.12927816195449
1.13749787606295
1.13795897149773
1.1379622248054
1.13796222642669
1.13796222650982
1.1379622265946
1.13796222661381
1.13796222661447
1.13796222661448
1.13796222661449
1.13796222661447
1.13796222661448
1.13796222661448
1.13796222661448
1.13796222661448
1.13796222661448
1.13796222661448
1.13796222661449
1.13796222661447
1.13796222661447
1.13796222661448
1.13796222661448
1.13796222661448
1.13796222661448
1.13796222661447
1.13796222661448
1.13796222661448
1.13796222661449
1.13796222661448
1.13796222661448
1.13796222661448
1.13796222661447
1.13796222661448
1.13796222661448
1.13796222661448
1.13796222661448
1.13796222661448
1.13796222661448
1.13796222661446
1.13796222661447
1.13796222661447
1.13796222661448
1.13796222661448
1.13796222661448
1.13796222661448
1.13796222661448
1.13796222661449
1.13796222661448
1.13796222661449
1.13796222661448
1.13796222661448
1.13796222661448
1.09288671894792
0.912331873169109
0.781766346531649
0.813222232618453
1.09374529966482
0.924951427462786
0.767634964161997
0.834580695812399
1.09288672800619
0.912331929630739
0.781766029013376
0.813222075082458
1.09374563476942
0.924954233801317
0.767629000107557
0.834578352117507
1.0928864319735
0.912329901031187
0.781775070554514
0.813226334649521
1.09374564567873
0.924954324736639
0.76762878593768
0.834578268653102
)
;
    }
    sides
    {
        type            calculated;
        value           nonuniform List<scalar> 
84
(
1.40256285909143
1.40079893493321
1.40035677123538
1.40256282341906
1.40079897824821
1.40035676315578
1.40256285900309
1.40079893524535
1.40035677089326
1.40256282199988
1.40079898184133
1.40035676247666
1.40256285687709
1.40079894020939
1.40035676941484
1.4025628222844
1.40079898170746
1.40035676264049
1.40608956979892
1.42009111847793
1.44409059908633
1.40608974284154
1.4200910285711
1.44409018228516
1.40608957221269
1.42009112048705
1.4440906018147
1.40608974894385
1.42009089353374
1.44408983984072
1.40608959051549
1.42009108919789
1.44409059350055
1.40608974766958
1.42009087834061
1.44408979924577
1.47680119300336
1.47679969190536
1.47680119593557
1.47679890180451
1.47680115455776
1.47679882311798
1.51566211958713
1.51566355208996
1.515662146263
1.51566288835255
1.51566192212326
1.51566279903781
1.56007105802221
1.56007269894413
1.56007112499321
1.56007267982981
1.56007040533203
1.56007267141361
1.6097956852558
1.6097942335379
1.60979571312282
1.60979425794511
1.60979543573793
1.60979425084527
1.67028980101088
1.67028614189739
1.67028983249314
1.67028604624804
1.67028938210996
1.67028603864151
1.75467590919457
1.75467944449838
1.75467592517822
1.75467924558822
1.75467566902911
1.75467923352415
1.85634598076221
1.85649769013333
1.85634599251052
1.8564974128747
1.85634584124743
1.856497398306
1.98058920377314
1.98185368404436
1.98058921744348
1.98185346370989
1.98058900964834
1.9818534503049
)
;
    }
}


// ************************************************************************* //
