/*--------------------------------*- C++ -*----------------------------------*\
  =========                 |
  \\      /  F ield         | OpenFOAM: The Open Source CFD Toolbox
   \\    /   O peration     | Website:  https://openfoam.org
    \\  /    A nd           | Version:  11
     \\/     M anipulation  |
\*---------------------------------------------------------------------------*/
FoamFile
{
    format      ascii;
    class       volScalarField;
    location    "0.0000500006";
    object      T;
}
// * * * * * * * * * * * * * * * * * * * * * * * * * * * * * * * * * * * * * //

dimensions      [0 0 0 1 0 0 0];

internalField   nonuniform List<scalar> 
900
(
1824.39861278414
1783.43159822323
1743.36797796468
1823.75177080718
1783.00660954351
1743.17538070303
1822.76907096368
1782.24424059823
1742.75583405148
1824.39861909244
1783.43159284943
1743.36797301436
1823.75177091574
1783.00663010189
1743.17531885084
1822.76907582286
1782.24423044045
1742.75584907204
1824.39861269182
1783.43159819726
1743.36797774741
1823.75177081887
1783.00660949358
1743.17538073733
1822.76907095907
1782.24424064577
1742.75583392737
1824.39862159026
1783.43159431475
1743.36797299502
1823.75177041488
1783.00662916501
1743.17531989759
1822.76907486307
1782.24423066549
1742.75585022801
1824.39861536606
1783.43160032724
1743.36797857751
1823.75177310455
1783.0066117785
1743.17538250702
1822.76907049121
1782.24424051418
1742.75583583495
1824.39862171736
1783.43159441827
1743.3679731604
1823.75177045906
1783.00662917766
1743.17532012996
1822.76907483452
1782.2442307215
1742.75585022245
1698.64396442397
1650.34242936832
1603.42239726993
1698.71051446111
1650.46763212689
1603.5152950966
1698.45702347688
1650.33836416945
1603.44016918423
1698.64403241041
1650.34239094472
1603.42227668524
1698.71069362063
1650.46752758198
1603.51530074884
1698.45700929467
1650.338367991
1603.44018491538
1698.64396527538
1650.34242994845
1603.42239831912
1698.71051478939
1650.46763332681
1603.51529544387
1698.45702381082
1650.33836504653
1603.44017231253
1698.64403872852
1650.34234924771
1603.42218210621
1698.71069553609
1650.46749440699
1603.5152117427
1698.45701104544
1650.33835590369
1603.44014695063
1698.64397605854
1650.34241907442
1603.42239643211
1698.71052153231
1650.46762692689
1603.51529727212
1698.45702642224
1650.33835721334
1603.44014182174
1698.64403869763
1650.3423448287
1603.42217098538
1698.71069533839
1650.46749068828
1603.51520092948
1698.45701112098
1650.33835424641
1603.44014233421
1555.04581347765
1555.10435689488
1555.07061158224
1555.04547525166
1555.10390769386
1555.07057048671
1555.04581551843
1555.10435465584
1555.07061636218
1555.04527958135
1555.10371697146
1555.07050117051
1555.04579117057
1555.10437275478
1555.07055834659
1555.04526086175
1555.10369970127
1555.07049497196
1504.23956578492
1504.2616779444
1504.2496691243
1504.24008712796
1504.26200476209
1504.24990606792
1504.23957666304
1504.26168015055
1504.24968735257
1504.24000462505
1504.26178294789
1504.2498643015
1504.23948101124
1504.26168267388
1504.24952516253
1504.23999110959
1504.26174871563
1504.24985697132
1449.56108750748
1449.58786534788
1449.5950140342
1449.56157079257
1449.58813017082
1449.59492639392
1449.56110652164
1449.58787526885
1449.59501712039
1449.56167059007
1449.5881147397
1449.59490746886
1449.5609090492
1449.58778310851
1449.59499417604
1449.56167920624
1449.58811036713
1449.59490416505
1390.49536406358
1390.48545136595
1390.48344901775
1390.49465963138
1390.48498710061
1390.48353242428
1390.49536987133
1390.48545269289
1390.48345122866
1390.49473493974
1390.48497556178
1390.48353737416
1390.49532527137
1390.48545811538
1390.48344239638
1390.49474019793
1390.48497301859
1390.48353557623
1328.0581951073
1328.09010238013
1328.11061412575
1328.05774602894
1328.0908480805
1328.11052102163
1328.05820118961
1328.09010748296
1328.11061790873
1328.05776154037
1328.09084544317
1328.11050862566
1328.05812275415
1328.09003676292
1328.11056666087
1328.05776353776
1328.09084564341
1328.11050712566
1246.80504727663
1246.87410953539
1247.03415476775
1246.82301911561
1246.90695002848
1247.03775567282
1246.80504867439
1246.8741104306
1247.03415723916
1246.82299373432
1246.90692934157
1247.03773136685
1246.80503286321
1246.87409939114
1247.03412181621
1246.8229923719
1246.90692809725
1247.03772956272
1152.86941833148
1152.91750391977
1152.86832189476
1152.86305888999
1152.8967525698
1152.84747388872
1152.86941869888
1152.91750373406
1152.86832260468
1152.86304591217
1152.89674649654
1152.84746455435
1152.86943635825
1152.91752480327
1152.86832448861
1152.86304472618
1152.89674569845
1152.8474636577
1018.41233921293
1018.06411817905
1017.48929014617
1018.34210700107
1018.02391400852
1017.42390965772
1018.41233984952
1018.06411870139
1017.4892914785
1018.34211285265
1018.02391648501
1017.4239120775
1018.41236652984
1018.0641391024
1017.48928263321
1018.34211258039
1018.02391600936
1017.42391157548
1879.26816549632
1878.61871190759
1878.11027620862
1879.26816098634
1878.61872962638
1878.11027675913
1879.26816542474
1878.61871193747
1878.11027625591
1879.26816369874
1878.61872771814
1878.11027620797
1879.26816700127
1878.61871239444
1878.11027601439
1879.26816379143
1878.61872762443
1878.11027617218
295.085753545072
308.485004442317
311.574171866672
309.927378813113
302.9958344759
300.193111546769
300.001730289354
300.000001495528
299.999999981357
299.999999988981
299.999999997904
299.99999999993
300
299.999999999999
299.999999999997
294.299177813908
332.384057219622
335.81340368594
325.273104515744
307.771854270746
300.613545811492
300.007159506143
300.000008210513
299.99999998624
299.999999989619
299.999999997096
299.999999999844
299.999999999997
299.999999999998
299.999999999999
318.962023958921
376.309208258214
363.444875314115
346.149215345275
315.753621492959
301.411756161339
300.018927860686
300.000025612488
299.999999988442
299.999999989236
299.999999996331
299.999999999747
299.999999999997
300
300.000000000002
426.007114394171
404.585329183027
383.574419000656
365.223535218216
325.428687922788
302.500099522264
300.036278824518
300.00005563789
299.999999994544
299.999999989562
299.999999995544
299.999999999609
299.999999999996
300.000000000001
300.000000000004
295.250320471525
309.796852735152
312.111618935285
309.928274692822
302.965420020177
300.192622793381
300.001742233351
300.00000151143
299.999999981349
299.999999988972
299.999999997892
299.999999999918
299.999999999989
299.999999999989
299.999999999992
295.540479560589
345.023033350334
340.533937932916
325.877866563256
307.538929459117
300.586208851114
300.006919441351
300.000008150528
299.999999986242
299.999999989609
299.999999997085
299.999999999834
299.999999999988
299.99999999999
299.999999999995
313.276980845227
403.227266826891
379.406720350894
350.511290656144
315.126298280729
301.262810899706
300.016936743407
300.000024295835
299.999999988503
299.999999989225
299.999999996325
299.999999999739
299.999999999989
299.999999999993
299.999999999995
411.95163946264
434.256964224431
407.180987499237
375.992582934118
324.841207035885
302.148804215371
300.030459963749
300.000049682045
299.999999994581
299.999999989553
299.999999995544
299.999999999611
299.999999999994
300
300.000000000001
295.085755064902
308.485020253394
311.57418105445
309.927380193467
302.995833644767
300.193111468132
300.001730288773
300.000001495527
299.999999981357
299.999999988981
299.999999997905
299.99999999993
300
299.999999999999
299.999999999997
294.299182070493
332.384126907482
335.81344922641
325.273117146614
307.771853139577
300.61354536375
300.00715949793
300.000008210502
299.99999998624
299.999999989619
299.999999997096
299.999999999844
299.999999999997
299.999999999998
300
318.961956767302
376.309288516501
363.444954997607
346.149256729046
315.753625657088
301.411755175291
300.018927827687
300.00002561242
299.999999988442
299.999999989235
299.999999996331
299.999999999747
299.999999999997
300
300.000000000002
426.007011477494
404.58535853185
383.574471075206
365.223584856856
325.428707371968
302.500099063989
300.036278773176
300.000055637738
299.999999994544
299.999999989562
299.999999995544
299.999999999609
299.999999999996
300.000000000002
300.000000000004
295.250375653751
309.797319451674
312.11198593937
309.928342157044
302.965395868064
300.192620439046
300.001742218086
300.000001511438
299.999999981358
299.999999988981
299.999999997904
299.99999999993
300
299.999999999999
299.999999999997
295.540753162959
345.024987823645
340.535215872038
325.878305178325
307.538921021313
300.586197559503
300.006919233488
300.000008150287
299.99999998625
299.999999989618
299.999999997096
299.999999999844
299.999999999997
299.999999999998
300
313.275547053445
403.228309551414
379.407870874363
350.512293928275
315.126495593571
301.262787884581
300.016935888478
300.000024294024
299.99999998851
299.999999989232
299.999999996332
299.999999999747
299.999999999997
300
300.000000000002
411.949153866528
434.256605953991
407.181238553299
375.993730705719
324.841930870246
302.148799233342
300.030458530741
300.000049677393
299.999999994583
299.999999989555
299.999999995545
299.99999999961
299.999999999996
300.000000000001
300.000000000004
295.085698098328
308.4845123473
311.573889099588
309.927332305834
302.995857803469
300.193113833255
300.001730306871
300.000001495526
299.999999981349
299.999999988972
299.999999997891
299.999999999917
299.999999999988
299.999999999989
299.999999999992
294.299023535132
332.381957482111
335.812035492865
325.272720326618
307.771883620075
300.613558628674
300.007159744205
300.000008210798
299.999999986232
299.99999998961
299.999999997085
299.999999999833
299.999999999988
299.99999999999
299.999999999995
318.963940948196
376.306828271451
363.442503117176
346.147977988846
315.753490867456
301.411784217301
300.018928815769
300.000025614448
299.999999988436
299.999999989229
299.999999996325
299.999999999739
299.999999999989
299.999999999992
299.999999999995
426.010121268999
404.584509257311
383.572887121506
365.222055858911
325.42810101005
302.500111683351
300.036280319197
300.000055642337
299.999999994542
299.99999998956
299.999999995543
299.999999999611
299.999999999994
300
300.000000000001
295.25037731402
309.797334759943
312.111998052806
309.928344204066
302.965394992132
300.192620358067
300.001742217596
300.000001511437
299.999999981357
299.999999988981
299.999999997905
299.99999999993
300
300
299.999999999997
295.540762049606
345.025054417274
340.535259262149
325.878319838125
307.538920563413
300.586197158645
300.006919226269
300.000008150278
299.99999998625
299.999999989618
299.999999997096
299.999999999845
299.999999999997
299.999999999998
300
313.27549717893
403.228346818551
379.407910914643
350.512328176987
315.126502008344
301.262787049211
300.016935858503
300.000024293961
299.99999998851
299.999999989232
299.999999996331
299.999999999747
299.999999999997
300
300.000000000002
411.949069532896
434.256595843953
407.181248477161
375.99377038522
324.841955296428
302.148798995386
300.030458480347
300.000049677232
299.999999994583
299.999999989555
299.999999995545
299.99999999961
299.999999999996
300.000000000002
300.000000000004
649.215753739288
365.569934494122
379.835188463945
378.342729874658
335.436324390346
303.715168473506
300.054701800492
300.000087811041
300.000000001924
299.99999998985
299.999999995003
299.999999999483
299.999999999992
300
300.000000000002
647.442376760006
350.324437526331
369.175337924114
384.558894071576
342.510365984685
304.707390767312
300.069180398849
300.000111390984
300.000000007155
299.999999989977
299.999999994714
299.999999999406
299.999999999991
300.000000000001
300.000000000002
658.820175453135
357.648784954648
367.032689159731
390.99515230923
347.567660099348
305.344172581689
300.077792450918
300.000125524005
300.000000010664
299.999999989975
299.999999994506
299.999999999355
299.999999999991
300.000000000002
300.000000000002
663.699598095982
389.411116763405
401.949216364778
392.114082758465
336.293404723189
303.275581929484
300.045934682465
300.000076752056
300.000000001746
299.999999989843
299.999999995006
299.999999999485
299.999999999992
299.999999999999
300.000000000001
662.050272579573
368.595032102351
385.626018820791
394.931076141231
344.19587167113
304.41830687632
300.061791241524
300.000100930457
300.000000006911
299.999999989973
299.999999994716
299.999999999407
299.99999999999
300
300.000000000001
663.233585878858
365.599028685931
373.667867400713
393.74578988148
348.065485456346
305.310484205182
300.076621741273
300.000123628119
300.000000010747
299.999999989974
299.999999994507
299.999999999356
299.999999999991
300.000000000001
300.000000000002
649.215739070376
365.569955911334
379.835196981366
378.342756819267
335.436352741955
303.715169223238
300.054701754009
300.000087810867
300.000000001924
299.99999998985
299.999999995002
299.999999999482
299.999999999992
300
300.000000000003
647.442363966018
350.324441206683
369.175344774171
384.558903390586
342.510382100107
304.707391606155
300.069180375584
300.000111390883
300.000000007155
299.999999989977
299.999999994714
299.999999999405
299.999999999991
300.000000000001
300.000000000003
658.82016279284
357.648795123479
367.032688828513
390.995141339521
347.567656804756
305.344172859197
300.077792460034
300.000125524021
300.000000010664
299.999999989975
299.999999994507
299.999999999355
299.999999999991
300.000000000002
300.000000000002
663.699268600792
389.41160392751
401.949364818426
392.114793864963
336.294444237741
303.275603135955
300.045933047963
300.00007674572
300.000000001744
299.999999989843
299.999999995004
299.999999999483
299.999999999992
300
300.000000000002
662.0504457521
368.595880331098
385.62653151474
394.932295696175
344.196662375086
304.418318269372
300.061789694269
300.000100924955
300.000000006909
299.999999989972
299.999999994715
299.999999999406
299.999999999991
300.000000000001
300.000000000002
663.233481853478
365.597596731372
373.667555010654
393.745344498503
348.06560078691
305.31049483148
300.076621218366
300.00012362592
300.000000010747
299.999999989974
299.999999994506
299.999999999355
299.999999999991
300.000000000002
300.000000000002
649.216247468379
365.569327262328
379.834989720575
378.341950383654
335.435470375917
303.715144154007
300.054703160979
300.00008781621
300.000000001926
299.999999989851
299.999999995004
299.999999999485
299.999999999992
299.999999999999
300
647.442805822259
350.324349149238
369.175202500081
384.558670460204
342.509886310525
304.70736331
300.069181071629
300.000111394045
300.000000007157
299.999999989978
299.999999994715
299.999999999407
299.99999999999
300
300.000000000001
658.820576953844
357.648487039023
367.032733206403
390.995512108091
347.567767890921
305.344163690633
300.077792172094
300.000125523566
300.000000010664
299.999999989975
299.999999994506
299.999999999355
299.99999999999
300.000000000001
300.000000000002
663.699257528493
389.411621026731
401.949371229956
392.114818931843
336.294479539369
303.275603796271
300.045932990772
300.000076745501
300.000000001744
299.999999989842
299.999999995004
299.999999999483
299.999999999992
300
300.000000000002
662.050450950515
368.595908399376
385.626548895483
394.932337278457
344.196689306997
304.418318628198
300.061789640743
300.000100924766
300.000000006909
299.999999989972
299.999999994715
299.999999999406
299.999999999991
300.000000000001
300.000000000002
663.233478005395
365.597549188778
373.667544212087
393.745329763863
348.065604816282
305.310495208635
300.076621200279
300.000123625843
300.000000010747
299.999999989974
299.999999994506
299.999999999355
299.999999999991
300.000000000002
300.000000000002
)
;

boundaryField
{
    inlet
    {
        type            timeVaryingMappedFixedValue;
        fieldTable      T;
        value           nonuniform List<scalar> 
24
(
1899.99999999823
1899.99999999823
1899.99999999823
1899.99999999823
1899.99999999823
1899.99999999823
1899.99999999823
1899.99999999823
1899.99999999823
1899.99999999823
1899.99999999823
1899.99999999823
1899.99999999823
1899.99999999823
1899.99999999823
1899.99999999823
1899.99999999823
1899.99999999823
1899.99999999823
1899.99999999823
1899.99999999823
1899.99999999823
1899.99999999823
1899.99999999823
)
;
    }
    outlet
    {
        type            freestream;
        freestreamValue uniform 300;
        value           nonuniform List<scalar> 
156
(
295.140021764246
308.542467124531
311.578296940438
309.879452080428
302.955772829951
300.188335572632
300.001664051092
300.000001414231
300
300
300
300
300
300
299.999999999997
295.296927170061
309.79212876159
312.094231105317
309.877295403706
302.927041869072
300.187932235725
300.001675614372
300.000001428785
300
300
300
300
300
300
300
295.140023247505
308.542482585776
311.578305923323
309.879453362594
302.95577201228
300.188335497323
300.001664050552
300.00000141423
300
300
300
300
300
300
299.999999999997
295.296981615386
309.792587323175
312.094590878052
309.877359177328
302.927018039495
300.187929982363
300.001675600272
300.000001428793
300
300
300
300
300
300
299.999999999997
295.139967505086
308.541985538207
311.578020246805
309.879408509108
302.955795782187
300.188337763042
300.001664067405
300.000001414228
300
300
300
300
300
300
299.999999999992
295.29698325066
309.792602351836
312.09460274201
309.877361099443
302.927017175719
300.187929904909
300.001675599821
300.000001428793
300
300
300
300
300
300
299.999999999997
300
300
300
300
300
300
300
299.999999999992
300
300
300
300
300
300
300
300
300
300
300
300
300
300
300
300
300
300
300
300
300
300
300
300
300
300
300
300
300
300
300
300
300
300
295.140021764246
300
300
300
295.296927170061
300
300
300
295.140023247505
300
300
300
295.296981615386
300
300
300
295.139967505086
300
300
300
295.29698325066
300
300
300
)
;
    }
    sides
    {
        type            zeroGradient;
    }
}


// ************************************************************************* //
