/*--------------------------------*- C++ -*----------------------------------*\
  =========                 |
  \\      /  F ield         | OpenFOAM: The Open Source CFD Toolbox
   \\    /   O peration     | Website:  https://openfoam.org
    \\  /    A nd           | Version:  11
     \\/     M anipulation  |
\*---------------------------------------------------------------------------*/
FoamFile
{
    format      ascii;
    class       volVectorField;
    location    "0.0000500006";
    object      U;
}
// * * * * * * * * * * * * * * * * * * * * * * * * * * * * * * * * * * * * * //

dimensions      [0 1 -1 0 0 0 0];

internalField   nonuniform List<vector> 
900
(
(-6.09592612223104 -10.5584447651641 614.45857343372)
(-4.41014313464355 -7.63864044602109 622.89724843141)
(-3.11229351665251 -5.39063228697657 630.502064315969)
(-3.43646434886875 -5.95211505933091 609.720052351122)
(-2.32494254323264 -4.02696873855248 620.265923057928)
(-1.54612069141368 -2.67794137142654 629.091037177558)
(-2.79033337316287 -4.83298031224287 601.600599013914)
(-1.95705055439761 -3.38977159053147 615.325021872493)
(-1.19427574763346 -2.06851438288284 626.082211112531)
(-12.191759823446 -4.66209400330717e-07 614.458541400055)
(-8.82047936232395 7.83591484834729e-09 622.897275182297)
(-6.22434643906866 -1.43374198852637e-06 630.502013509485)
(-6.8728559490858 -4.561924669032e-07 609.720034123495)
(-4.65004613963782 1.08414758677907e-07 620.265941573896)
(-3.09204151657605 -1.46971572431668e-06 629.091010812428)
(-5.58063244007123 -5.48181388883478e-07 601.60060957667)
(-3.91418974208196 3.59170830282281e-07 615.325001553307)
(-2.38845041382773 -1.94168364965083e-06 626.082237437258)
(-6.09592642109076 10.5584438020137 614.458573470751)
(-4.41014242153257 7.63864073989374 622.897248444998)
(-3.11229466376619 5.39062903546401 630.502063879476)
(-3.43646461464174 5.95211404342164 609.720052402185)
(-2.32494186863246 4.02696931341025 620.265923047287)
(-1.54612173097231 2.67793772552221 629.091036876287)
(-2.79033350395424 4.83297906289296 601.60059895551)
(-1.95705019897834 3.38977242380008 615.325022076519)
(-1.19427620011813 2.06851009578504 626.082210625444)
(6.09587054994119 10.5583674087307 614.458532903765)
(4.41028517871859 7.6387836617409 622.897284657891)
(3.11214960851883 5.39042580078021 630.502005273538)
(3.4364135581659 5.95205833476943 609.720027599563)
(2.32507228405073 4.02708473455716 620.265947825541)
(1.54599614370997 2.67776861153377 629.091004519732)
(2.79029899115707 4.83295836536567 601.600605785452)
(1.95715145785663 3.38981971139221 615.325008977692)
(1.19419113312664 2.06843636104113 626.082230521755)
(12.1918336504242 -7.41494243435454e-07 614.458565187557)
(8.82038203649647 7.73761797104505e-07 622.897260671031)
(6.22453883201538 -2.64574880734926e-06 630.502056802425)
(6.87290071777909 -7.40090128943967e-07 609.720047137421)
(4.64998526649946 8.79429613290195e-07 620.265932569521)
(3.09219214692819 -2.73984930241425e-06 629.091033140091)
(5.58063296234826 -7.38145551035373e-07 601.600596194345)
(3.91421369968748 7.27671234540136e-07 615.325029007809)
(2.38848541556186 -2.5352210734528e-06 626.082205530551)
(6.09587080964543 -10.5583687971628 614.458533062654)
(4.41028449608959 -7.63878244038206 622.897284226934)
(3.11215068921364 -5.39043056134847 630.502006194536)
(3.43641384424093 -5.95205974741736 609.720027679007)
(2.32507167123416 -4.02708343276505 620.265947487095)
(1.54599723898445 -2.67777348419783 629.091005147269)
(2.79029913290866 -4.83295970935619 601.600605781608)
(1.95715122255171 -3.38981857497011 615.325008886012)
(1.19419167921603 -2.06844120020636 626.082230820301)
(-1.91349256065397 -3.31430444209541 634.806493022833)
(-1.04642005344289 -1.81249823110072 634.674490469169)
(-0.43725914590633 -0.757259740341118 628.814672180687)
(-0.907694165873174 -1.57220548659422 634.311634980562)
(-0.477401960595812 -0.826935258364111 634.652855438077)
(-0.186144586395572 -0.322292610730036 628.901520570784)
(-0.673371076461444 -1.16638281737831 632.665976392174)
(-0.34154862345408 -0.591565162492026 633.871185333673)
(-0.138030042040951 -0.238888315470377 628.618802864324)
(-3.82755904335894 1.89254767760304e-06 634.80645760245)
(-2.09236559786875 -2.09840681720029e-06 634.674501711226)
(-0.875186397333704 3.49637304463864e-06 628.814911471865)
(-1.81588917928643 2.05067956362099e-06 634.311728110585)
(-0.954406480681754 -1.59638925360893e-06 634.652767372908)
(-0.372762631449533 3.74717320704367e-06 628.901830858025)
(-1.34698530342455 2.94839672537198e-06 632.665919456823)
(-0.682921835601423 -3.13237430946866e-06 633.871237272508)
(-0.276143287411025 7.10289869668694e-06 628.618777566674)
(-1.91349033160891 3.31430971421685 634.806492866884)
(-1.04642302870229 1.81249231595096 634.674488095601)
(-0.437255841023002 0.757265836332433 628.814671012608)
(-0.907691975893918 1.572211284116 634.311634561622)
(-0.477404952951615 0.826929177801315 634.652853641381)
(-0.186140025489444 0.322298427900143 628.901515763984)
(-0.673370145374872 1.16638922744309 632.665976792729)
(-0.341549308679165 0.591558106336139 633.871182793894)
(-0.138025747755029 0.238905527644116 628.618802136737)
(1.91382638788861 3.31479543264735 634.806467674652)
(1.04618926809219 1.81203078600835 634.674581734129)
(0.437477513191039 0.757815634693099 628.815094201458)
(0.907995643165141 1.57264181405994 634.311734298629)
(0.477202500480716 0.826513962179091 634.652821408996)
(0.186229032356418 0.322660417713313 628.901934366403)
(0.673563534586092 1.16657000027685 632.665932519816)
(0.341440407629828 0.591394683079595 633.871248034854)
(0.137953588509559 0.239037802576869 628.618833929406)
(3.82708595847007 4.62137993428452e-06 634.806498252696)
(2.09289418442091 -5.58710598937696e-06 634.674516633022)
(0.874394128148225 5.8813632733151e-06 628.814677321631)
(1.81548824268261 4.82230259934666e-06 634.311640786418)
(0.954853902131917 -5.57614909416025e-06 634.652879262394)
(0.372168354738059 6.20673968624511e-06 628.901561331764)
(1.34688715267148 3.98607678656068e-06 632.665988732019)
(0.683061494420755 -3.80951407883628e-06 633.871190018742)
(0.275818633441163 1.17696556217954e-05 628.618823962226)
(1.9138240639569 -3.31478756830069 634.806466707839)
(1.04619198952849 -1.81203977839623 634.674592047975)
(0.437468684806301 -0.757793149777487 628.815115776059)
(0.907993567146309 -1.57263401033659 634.311733393221)
(0.477204656584845 -0.826521203351585 634.652829324669)
(0.186217105082654 -0.32263068806448 628.901945516412)
(0.673562736787245 -1.16656267051447 632.66593235884)
(0.341441045942269 -0.591402568873136 633.871250973901)
(0.137947521568235 -0.2390120710637 628.618839322959)
(-0.186283920676383 -0.322525161189184 619.373991546643)
(-0.0667875205555097 -0.115504216837572 619.446166406362)
(-0.0673113616031633 -0.11619795474324 619.47315626258)
(-0.370439864409494 -1.77659787026292e-06 619.374978798091)
(-0.131500347894349 -4.55187868661448e-06 619.446053527562)
(-0.134116250396269 1.16545925303089e-05 619.47250330271)
(-0.186276362993072 0.322524436879186 619.373995450901)
(-0.0667770159737827 0.115504051514604 619.446160326286)
(-0.06730899556693 0.116232308841756 619.473133239241)
(0.185037264911096 0.320440715506394 619.375368010964)
(0.0655364421035928 0.113415933289644 619.446226033565)
(0.0667950279382427 0.11590642996433 619.472499413885)
(0.372503335065953 6.23182472075275e-06 619.373952113195)
(0.133484512894365 8.97862280083864e-06 619.446228002005)
(0.134031843144823 1.91909817022764e-05 619.473370189636)
(0.185016015385608 -0.320408024606304 619.375407475862)
(0.0655074577958668 -0.113376171760654 619.446243805194)
(0.0667868442573578 -0.115869341597803 619.472501246866)
(-0.0502865790085826 -0.0864593325926324 608.562706290258)
(-0.00244293990773308 -0.0041869858395073 608.626970504514)
(-0.0109420646656 -0.0184775516061394 608.715802694768)
(-0.0987367524819254 -3.97025666467554e-06 608.56246589333)
(-0.00254871332580945 5.06289952004259e-06 608.625582952174)
(-0.0217942615462328 2.56746748538018e-05 608.71511563005)
(-0.0502505794372826 0.0864569102583569 608.562708765159)
(-0.00242829237264876 0.00414808328879495 608.626947066526)
(-0.010950441453275 0.0185425695375618 608.715763638986)
(0.0490234814601879 0.0848247843856387 608.562972993391)
(0.000454397992353751 0.0008508707572214 608.625625815443)
(0.0103258034379259 0.0183101033769958 608.714925093564)
(0.100309085202115 3.02422112478941e-05 608.562673988117)
(0.00541433954014353 -6.58902073223926e-06 608.627189870919)
(0.0210535614713931 2.49867629081843e-05 608.716162100086)
(0.048971589651064 -0.0847412970923999 608.563031521061)
(0.000367139246970659 -0.000680078239748645 608.625635852256)
(0.0102984854532801 -0.0182087191159283 608.714904141637)
(-0.0644016947905143 -0.110851731935439 597.740469223293)
(-0.0189214147740791 -0.032085274296027 597.778082497796)
(-0.0183377494043066 -0.0309424560661893 597.849221949953)
(-0.129463538947197 8.85730520360092e-06 597.73961490013)
(-0.038991212709265 1.02255331055997e-05 597.777739338921)
(-0.0364924921077689 3.3553898819335e-05 597.849548701649)
(-0.0643928201215843 0.110898960030759 597.740454421564)
(-0.0189195494736075 0.0321428480834437 597.778066242034)
(-0.0183398381191135 0.0310181692867853 597.849216974985)
(0.0642438093362916 0.11146439342253 597.739675146604)
(0.0189411130245524 0.0330272510080669 597.777554615136)
(0.0175502968419775 0.0311494119842877 597.849397677812)
(0.127851370773007 3.12933544259298e-05 597.740640766276)
(0.0367713907131877 3.03054934102058e-05 597.778264371767)
(0.0352899800718145 3.59954938499235e-05 597.849302397079)
(0.0642106224798548 -0.111388703921866 597.739680461769)
(0.0189025729618652 -0.0329382761369272 597.777531619347)
(0.0175420768927809 -0.0310674154095189 597.849378518509)
(0.0546744398717228 0.0952852278817505 587.20107427886)
(0.0272661143630136 0.0478292846816064 587.252758398646)
(0.0193398041637125 0.0341221725543804 587.334413232514)
(0.109877877180129 1.02101654809351e-05 587.201660460264)
(0.0556328708895465 1.24144022101894e-05 587.253774109398)
(0.0390648382984964 2.17942745875369e-05 587.33476512463)
(0.0546849040503474 -0.0952462991415154 587.201077819313)
(0.0272755813364451 -0.0477850924329587 587.252758331388)
(0.0193464559211126 -0.0340728082182315 587.334415728958)
(-0.0553251311398975 -0.0956293724954046 587.201558757448)
(-0.0281756787337828 -0.0485640967555198 587.253602576607)
(-0.01996687243695 -0.0341704227566139 587.334661144373)
(-0.110112126090422 2.83023163219191e-05 587.201046065732)
(-0.0553636848842778 3.01392492730616e-05 587.252776947737)
(-0.0395839785852658 3.03890939368617e-05 587.334402877169)
(-0.0553465153605969 0.0956873026321755 587.201551886322)
(-0.0281923045996167 0.0486181907367914 587.253587571198)
(-0.0199761461550552 0.0342302240749303 587.334650976101)
(-0.0350801254491254 -0.0604105076874306 575.691350878519)
(-0.00946410035311333 -0.0160517486461869 575.682461021448)
(-0.00148256313930409 -0.00215340245354847 575.66860390919)
(-0.0691122914530093 2.09661802545654e-05 575.692700134507)
(-0.0181346643368632 2.09513954181159e-05 575.68198028112)
(-0.000468571092957915 2.21351677421276e-05 575.668864397678)
(-0.0350826564571178 0.0604507574198436 575.691344141467)
(-0.00947138354356318 0.0161000058765348 575.68245773698)
(-0.00148351717929444 0.00219651042236281 575.668612108836)
(0.0342142431456827 0.0597733306669024 575.692648731361)
(0.00869924785698336 0.0155827982956497 575.68188505269)
(-0.000128114217817464 0.000272393819669488 575.668811997821)
(0.0694501438198685 1.78292280583364e-05 575.691483510101)
(0.0181146931378727 1.7692128609941e-05 575.682542019716)
(0.00221587472031333 2.07639770609995e-05 575.668536225385)
(0.0342173704416847 -0.0597365968939349 575.692642598137)
(0.00870055310772562 -0.0155428849653763 575.681874798923)
(-0.000126210284983125 -0.000231474342758055 575.668806059523)
(-0.139771419618489 -0.241776723853552 563.501206990671)
(-0.104119863236566 -0.18000277073052 563.461816048641)
(-0.055341184892791 -0.0954589150781734 563.421758235452)
(-0.286397273401657 1.58656160454142e-05 563.493475970461)
(-0.201106056042602 1.61549734672148e-05 563.432200323583)
(-0.12508140419331 1.57910413427462e-05 563.421326502694)
(-0.139775991533554 0.24181117509727 563.501205654149)
(-0.10412545796181 0.180040363873087 563.461817082802)
(-0.0553447442730276 0.095496945004276 563.421763476695)
(0.142900506853834 0.247908362679037 563.493492374382)
(0.100236858527104 0.174019398204574 563.432188473065)
(0.0622192703579218 0.108154508267068 563.421312325668)
(0.278891219485159 1.32271512350793e-05 563.501259477697)
(0.207525196358211 1.39333527501286e-05 563.4618348396)
(0.109927244718387 1.59310351780161e-05 563.421710289612)
(0.142902623881638 -0.247880176484484 563.493491209386)
(0.100238054846147 -0.173989085691107 563.432185261683)
(0.0622192867246153 -0.108122934452448 563.421309606469)
(0.264513252051006 0.458494250092669 556.792067031953)
(0.340270269875981 0.589715039885213 556.741764631595)
(0.341761707976988 0.592342155270533 556.485480675196)
(0.558311725456488 1.22052279851077e-05 556.75103604781)
(0.66600834262392 1.26616784671454e-05 556.67803380003)
(0.59853977905226 1.37473216539336e-05 556.387271343004)
(0.264511695430089 -0.458466696212926 556.792070043406)
(0.340268158249318 -0.589686152429375 556.741768837146)
(0.341760431476863 -0.592312281510949 556.485486315387)
(-0.279437943900307 -0.483659968391402 556.751072283626)
(-0.33330621414711 -0.576945299815257 556.678039101064)
(-0.299591994368003 -0.518514249772537 556.387262844491)
(-0.529657859270052 1.24273253677322e-05 556.792036580814)
(-0.681195555093034 1.26160108977955e-05 556.741722541157)
(-0.684218743179304 1.38388617549253e-05 556.485413662008)
(-0.279437765413414 0.483684102922114 556.751072113454)
(-0.333306437066022 0.576971035588949 556.678037146955)
(-0.299591808650657 0.518541441530031 556.38726051375)
(0.419857360685926 0.727547303138168 577.826782677268)
(0.173983970060334 0.301704880487147 577.537332342783)
(0.0616010485937435 0.107068816425291 577.762888083926)
(0.738001876635739 1.01697673618537e-05 577.68370994441)
(0.261541575622044 1.04744043913744e-05 577.50752794701)
(0.117563858962602 1.18915627756249e-05 577.775889100772)
(0.419857077438461 -0.727524679126006 577.826785779306)
(0.173984171370351 -0.301681812755734 577.537334988852)
(0.0616011837202848 -0.107044068043568 577.762889548795)
(-0.369264221580768 -0.639283822083095 577.683737974837)
(-0.131047200237804 -0.226675305073725 577.50754497436)
(-0.0590783525290603 -0.101986565258865 577.775872813574)
(-0.840279971150585 1.1067738940712e-05 577.826738160819)
(-0.348537609616708 1.17113852421787e-05 577.537284120583)
(-0.123803136142225 1.24981218089705e-05 577.762868457039)
(-0.369264833649625 0.639305239744526 577.683738483614)
(-0.131048281849857 0.226698141765498 577.507544861975)
(-0.0590786876922678 0.102010942237516 577.775871639842)
(-7.25218992174209 -12.5611927194967 592.382048555444)
(-4.05572074557806 -7.02474806876804 580.044031431273)
(-2.92321076881215 -5.06318857457549 568.182678942898)
(-14.5044290727621 -9.77059938250607e-07 592.382077019145)
(-8.11151695921816 -1.05670257271203e-06 580.044043619441)
(-5.84645998393632 -1.07861939771682e-06 568.182675139254)
(-7.25218976963018 12.5611907599028 592.382048379661)
(-4.05572054487332 7.02474597405368 580.044031242462)
(-2.9232106874039 5.06318644465219 568.182678847791)
(7.25224221505293 12.5612174279681 592.38207829555)
(4.05578891412101 7.02479325143336 580.044046469484)
(2.92326443581037 5.06320035372878 568.182677295195)
(14.5044364025004 -8.46253459307534e-07 592.382055085959)
(8.11150484306953 -8.71859307991273e-07 580.044036663917)
(5.84649059544747 -9.90582326392497e-07 568.182681864621)
(7.25224209846462 -12.5612191745801 592.382078313492)
(4.05578874087345 -7.02479505797245 580.044046586883)
(2.9232643662484 -5.06320239040359 568.182677413298)
(36.5745197917631 63.3489328231196 -2.20478310402081)
(68.2235883714279 118.166655848516 8.05699886999654)
(62.4030943539254 108.085310728924 28.0614027665982)
(32.1644641080822 55.7104723698204 23.2556241022893)
(6.18318132401274 10.7095819810025 7.6044125108422)
(0.285727427119639 0.494894445340997 0.482157845563341)
(0.00200249684113207 0.00346842621228819 0.00430249533939351)
(1.37690767424185e-06 2.38487173484383e-06 3.86857131726002e-06)
(-1.19074347256028e-08 -2.06280166227055e-08 -4.09136537098572e-08)
(-6.69186119211108e-09 -1.15969969568578e-08 -2.80900531244878e-08)
(-1.17176490279543e-09 -2.03685111953645e-09 -5.48815294136076e-09)
(-3.48916236808731e-11 -6.64510851508752e-11 -1.91967119373702e-10)
(9.29321745020468e-13 -3.86392031116202e-12 1.2994307630675e-12)
(9.80623923550536e-13 -2.20338013880218e-12 1.45651727129868e-12)
(9.8937225024938e-13 -5.79497632797492e-13 -9.16259859395277e-13)
(21.8754092637742 37.8893205003995 35.5242375240045)
(72.3648714987335 125.339759193509 43.0922160249835)
(67.466842673182 116.855599369099 67.9353865631393)
(40.024440440442 69.3242346918386 53.8231633124024)
(9.63689785853169 16.6915843043584 21.1365950939404)
(0.596059589726466 1.0324037410914 1.73341625943715)
(0.00562067802358262 0.00973527905556465 0.0197056432072245)
(5.43275150029795e-06 9.40979706483651e-06 2.23554799560154e-05)
(-6.47708846579291e-09 -1.12212332026906e-08 -3.70488139935666e-08)
(-4.10865922033882e-09 -7.12460616778727e-09 -2.98226775235682e-08)
(-1.20208436476107e-09 -2.09126819952376e-09 -7.95227568212991e-09)
(-6.95325452767243e-11 -1.28232728407514e-10 -4.09258149379795e-10)
(6.81252064241053e-13 -4.32678961462785e-12 -5.57065915471264e-13)
(1.37509651086035e-12 -6.47053064126376e-13 3.1505705227425e-13)
(2.21987702833725e-12 1.67796089877427e-12 -1.42865887646271e-12)
(11.6852102679496 20.2392065851147 213.126452423258)
(69.0219110936662 119.546851648031 227.897353866615)
(74.4331014730656 128.919904410725 171.211146640532)
(46.5709775895952 80.6622844214422 110.710259760928)
(12.5117246205211 21.6709544800982 43.4743674881991)
(0.929136093757768 1.60929336101948 4.13416213023686)
(0.0106293050247463 0.0184101266210241 0.05484122952521)
(1.26724187891856e-05 2.19486205967871e-05 7.29546786567319e-05)
(-6.97545742486794e-09 -1.2084926669718e-08 -2.70851605466449e-08)
(-5.00974036423094e-09 -8.68468786871026e-09 -3.12622400701043e-08)
(-1.61171824766737e-09 -2.79937079713029e-09 -1.03792645089905e-08)
(-1.08585966348019e-10 -1.96205949874003e-10 -7.00872547239395e-10)
(2.99978756722165e-13 -4.37269111607331e-12 -4.98070194835029e-12)
(2.29274075816573e-12 2.62736186876652e-13 -8.05057465885e-13)
(2.244830884418e-12 6.4748568618167e-13 -1.64769377960062e-12)
(160.881183704032 278.657161446875 565.16918957737)
(97.2146561912245 168.376672232145 602.428376770887)
(70.5870577351565 122.257309768338 338.585612282411)
(46.7458498735196 80.9646611845993 181.494902001342)
(12.8797093337122 22.3083401384129 67.5916764163358)
(1.06998913138403 1.85326344444784 7.08788432321587)
(0.0142201616928581 0.0246296328882099 0.106405473187928)
(2.03752650340479e-05 3.5289531644422e-05 0.000163685073252657)
(-4.80695569693275e-09 -8.32905579910481e-09 -9.38775607855814e-09)
(-4.9576959742777e-09 -8.59187312673577e-09 -3.38542498739167e-08)
(-1.72642359108811e-09 -2.99658263416226e-09 -1.32934401108503e-08)
(-1.40820031802807e-10 -2.51014701570581e-10 -1.12316436300508e-09)
(2.38523549528541e-13 -5.36084784178825e-12 -1.25385590453382e-11)
(2.68325267327128e-12 -5.73585333730684e-13 -1.50949933970311e-12)
(2.6690323829331e-12 -6.55317986108657e-13 -1.48565718873551e-12)
(73.9679204218888 5.23221284033664e-08 -2.52431776647064)
(140.892816029496 -5.71948917179793e-06 8.50715669576632)
(125.880094695473 -1.04255107546082e-06 28.6647816116029)
(64.120421762928 -1.36924763326384e-07 23.2864014588573)
(12.2979228222036 -2.29418025756334e-08 7.56352491780928)
(0.570603888699382 -3.20011477418462e-10 0.482285904312386)
(0.00402639871915575 -9.58750431954307e-12 0.0043339320589754)
(2.7783214791346e-06 -1.29614685692011e-13 3.90580653704252e-06)
(-2.38134377541702e-08 -7.55615737086086e-14 -4.09068851355634e-08)
(-1.338430084906e-08 -4.12549754820664e-14 -2.80878527168814e-08)
(-2.34476492633021e-09 1.21966078233866e-13 -5.48728119679273e-09)
(-7.32402137951873e-11 -1.05470354260321e-13 -1.90619213501619e-10)
(-3.05197313609976e-13 -1.76676195224254e-13 -5.36255219263688e-13)
(-9.39448377183717e-14 -9.70324772507084e-14 -7.31960470226958e-13)
(-2.13336340869101e-13 -7.37341389428015e-14 -2.03927298640442e-12)
(45.7344481908564 1.16788421799562e-07 33.1957189737936)
(155.630658366646 -8.99789759442443e-06 47.9752241386464)
(143.722424316309 -1.19066647623583e-05 71.5789165142126)
(82.1015156084364 -2.22109412773119e-06 55.123350663643)
(18.8969473229599 -4.27580836267053e-07 20.9126472673943)
(1.13789497814357 -6.56191851624598e-08 1.67495660421757)
(0.0108105634987177 -8.86198133933109e-10 0.0191117951074104)
(1.0765446006902e-05 -7.97505856810749e-13 2.21708581873463e-05)
(-1.29339335041548e-08 -7.55223480834763e-14 -3.70804228976097e-08)
(-8.22102164655901e-09 -1.85562669642119e-13 -2.98211276949598e-08)
(-2.40809515179848e-09 2.25350095212956e-13 -7.94955939858893e-09)
(-1.40172933562926e-10 -3.44857329847086e-13 -4.06958985752258e-10)
(2.07156966202936e-12 -4.51360720954358e-13 -2.70890696257616e-12)
(3.5898696978519e-12 1.84214863119406e-13 -1.33410212319481e-12)
(3.8590244867239e-12 5.39705006086378e-14 -2.45065608375052e-12)
(24.2497204175234 -1.97729216324807e-05 199.749669594455)
(154.931075150424 -6.22348101450019e-06 245.761431239292)
(157.477052902868 -1.6505265827942e-05 182.568023146633)
(97.7927972798825 -1.37842024775555e-05 116.20675510948)
(24.2149792337681 -5.44535879174971e-07 43.4029930430744)
(1.68237758205678 -4.67416040669394e-07 3.82983090581961)
(0.0191385155629705 -1.01976840041125e-08 0.050036555089678)
(2.40037175586982e-05 -1.63584861331226e-11 6.95284272005023e-05)
(-1.3917203628008e-08 -8.64123108476498e-14 -2.75135714514051e-08)
(-1.00358556810665e-08 -2.17123286847956e-13 -3.12521152699985e-08)
(-3.2260376517837e-09 5.64440979946879e-14 -1.03767669955046e-08)
(-2.1863087048287e-10 -4.8309591384981e-13 -6.97835628617542e-10)
(3.64168253195365e-12 -2.33802910501649e-13 -6.55888550879514e-12)
(5.54502190152781e-12 4.49151703732809e-13 -1.71303256565494e-12)
(5.14063900000285e-12 2.78598747984292e-13 -2.70546564671044e-12)
(327.350297061571 -2.47118371438753e-05 517.228786608503)
(187.212522531743 3.67825598227578e-05 621.37517960893)
(129.256760675454 2.61970711663179e-05 361.366563426188)
(93.911885599983 6.02651387019168e-06 192.272244631761)
(26.2248275132454 7.19329223145208e-07 68.5475393851598)
(2.04827125754494 -8.57496408401286e-07 6.38252707140985)
(0.0261179311192915 -2.40326267435879e-08 0.0921904443056862)
(3.80516346413991e-05 -5.49034785308854e-11 0.00014906972493887)
(-9.64264993221758e-09 -1.99872735127898e-13 -1.12351732678794e-08)
(-9.91871836796899e-09 -3.17469209842969e-13 -3.385752505792e-08)
(-3.45411930938991e-09 3.92752623980987e-14 -1.32918277736157e-08)
(-2.81292622770377e-10 -6.87023510397273e-13 -1.12042564309989e-09)
(2.4075247072932e-12 -1.59955201160508e-13 -1.28989852912986e-11)
(6.19166229661238e-12 4.09762598918911e-13 -1.76999910368082e-12)
(5.87564071134641e-12 2.87888569682375e-13 -2.32110004023489e-12)
(36.5745226848703 -63.3489378969861 -2.20478637549765)
(68.2236045249155 -118.166686178813 8.05700381873904)
(62.4031035964637 -108.085327644103 28.0614110612719)
(32.1644634558014 -55.7104718561172 23.2556266602641)
(6.18318000496728 -10.7095797952372 7.60441104953041)
(0.28572732689199 -0.494894272115121 0.48215768989569)
(0.00200249613925076 -0.00346842501044145 0.00430249411480689)
(1.37690723355288e-06 -2.38487107680046e-06 3.86857030564415e-06)
(-1.19073515027327e-08 2.06280240725451e-08 -4.09137455305078e-08)
(-6.69181567800315e-09 1.15969765707183e-08 -2.80902571052399e-08)
(-1.17155077206844e-09 2.03642469393174e-09 -5.48775661145969e-09)
(-3.49581857450545e-11 6.62013938466251e-11 -1.91287460811914e-10)
(6.71999537012794e-13 3.95790133235024e-12 5.96346081252799e-13)
(1.0416157244817e-12 1.1690355590535e-12 9.83774728018878e-13)
(9.15401493959639e-13 7.42295147891614e-14 -8.89902053780265e-13)
(21.875410831774 -37.8893231375734 35.5242079847479)
(72.3649073956976 -125.339817095769 43.0922365885517)
(67.466864158096 -116.855649499313 67.9354140291955)
(40.024451477368 -69.3242580540494 53.8231798876756)
(9.63689707964523 -16.6915834237467 21.1365946239627)
(0.596059125960427 -1.03240299953475 1.73341534812142)
(0.00562067044253395 -0.00973526664170832 0.0197056246421615)
(5.43274447067786e-06 -9.4097850004562e-06 2.23554553231663e-05)
(-6.4771504193368e-09 1.12213920653771e-08 -3.70488263427246e-08)
(-4.10863606377228e-09 7.12471491391034e-09 -2.98227220829007e-08)
(-1.20283274294406e-09 2.09231570011598e-09 -7.95170892357536e-09)
(-6.96120326347325e-11 1.28046033936545e-10 -4.088516416376e-10)
(1.31755734383018e-12 3.62850092098314e-12 -1.60413489633567e-12)
(1.49929805253069e-12 -4.74569106499826e-13 -1.19848314295362e-13)
(2.20213097498258e-12 -2.30264862791085e-12 -1.24029304586135e-12)
(11.6851680786791 -20.2391386989964 213.126320243995)
(69.0218679654802 -119.546862557743 227.897391864225)
(74.433072961504 -128.91992110048 171.211196815655)
(46.5709705045483 -80.6623054697735 110.710303699188)
(12.5117281922719 -21.6709605757594 43.4743778670496)
(0.929135057596574 -1.60929217623369 4.13416003128952)
(0.0106292762930974 -0.0184100893990987 0.0548411497771004)
(1.26723674148234e-05 -2.19485533871013e-05 7.29545253879793e-05)
(-6.97547928761361e-09 1.20850262385754e-08 -2.70852250728927e-08)
(-5.00959079133134e-09 8.68463013763954e-09 -3.12625198785742e-08)
(-1.61167918945336e-09 2.79898086111301e-09 -1.03792497158434e-08)
(-1.08805361296647e-10 1.9629189963945e-10 -7.00701276940392e-10)
(8.89345705111341e-13 3.72838437895063e-12 -6.2814939422594e-12)
(1.53510157877416e-12 4.55370990027846e-14 -1.12932772453141e-12)
(1.49460983521055e-12 -4.17947471493035e-13 -1.31475842470196e-12)
(160.881205993335 -278.657103689714 565.168936858491)
(97.2145830391051 -168.376676367668 602.428364954414)
(70.5869561561833 -122.257233821917 338.585646123288)
(46.7458120572098 -80.9646454392987 181.494953413534)
(12.8797163058341 -22.3083511493866 67.5917026458152)
(1.06998885913155 -1.853263385796 7.08788269774863)
(0.0142201354450211 -0.0246296012367389 0.106405326101619)
(2.03751767445596e-05 -3.52894274218282e-05 0.000163684687029134)
(-4.80655336214871e-09 8.3288629983785e-09 -9.38787384186955e-09)
(-4.95736506267176e-09 8.59165904606702e-09 -3.38545635717343e-08)
(-1.72695102929584e-09 2.99653779305759e-09 -1.32932709836245e-08)
(-1.40420347212543e-10 2.50801976309721e-10 -1.12342278025861e-09)
(4.47914517040321e-13 5.1027679303089e-12 -1.32768548344721e-11)
(1.95707516826488e-12 1.29593572841481e-12 -1.73676978930329e-12)
(2.00145385262235e-12 9.39409630341548e-13 -1.26346191512672e-12)
(-36.984121603931 -64.0583800203732 -2.5244262415348)
(-70.447154550753 -122.018423612659 8.50734770087951)
(-62.9405301004883 -109.016267380859 28.6650891965387)
(-32.0602584885499 -55.5300071521595 23.286521424007)
(-6.14892557534256 -10.6502533734584 7.56347900080424)
(-0.285298997088259 -0.494152400309662 0.482280754535521)
(-0.00201318175361513 -0.00348693378934035 0.00433389669327561)
(-1.38915680854421e-06 -2.40608830792475e-06 3.9058007490535e-06)
(1.1907388347107e-08 2.06282905398224e-08 -4.09094075348969e-08)
(6.69134469803803e-09 1.15969998337624e-08 -2.80903766132764e-08)
(1.17096497639026e-09 2.03674772449882e-09 -5.48799858833993e-09)
(3.44489895585712e-11 6.64861817394223e-11 -1.91726367502867e-10)
(-1.19861150937791e-12 3.81818014566429e-12 1.03647108430389e-12)
(-6.37973131534823e-13 1.7656044028263e-12 1.48269001261582e-12)
(-8.26752940100539e-13 3.4275993653883e-13 -7.88993733978732e-13)
(-22.8674177080224 -39.607508089845 33.1950293827286)
(-77.8161372399626 -134.782069704868 47.9759477586074)
(-71.8620402013271 -124.469449718697 71.5799302688739)
(-41.0512012138675 -71.1029062519743 55.1240756239345)
(-9.44846243723217 -16.3652421742906 20.9126322102011)
(-0.568935702830522 -0.985429489915422 1.67492846856902)
(-0.00540509740436918 -0.00936195731945364 0.0191112948256471)
(-5.38253726171969e-06 -9.322863323542e-06 2.21702583549392e-05)
(6.46548665505143e-09 1.1201810022613e-08 -3.70822954552708e-08)
(4.10918571070152e-09 7.12561592451094e-09 -2.98220604712281e-08)
(1.20269371539569e-09 2.0925090429059e-09 -7.95180282427081e-09)
(6.96021401368847e-11 1.28738032685223e-10 -4.0919891303389e-10)
(-8.68493544545491e-13 4.33477498834999e-12 -7.8709669637459e-13)
(-1.45562457717052e-12 1.97546860552307e-13 3.28418472714143e-13)
(-2.21538268281677e-12 -2.0189394192591e-12 -1.3510015686736e-12)
(-12.1241895945453 -21.000863254406 199.747020469254)
(-77.4658448890159 -134.175152124691 245.762494672612)
(-78.7388740830093 -136.380750590189 182.569382399205)
(-48.897023193711 -84.6929813737088 116.207979652532)
(-12.1076302518854 -20.9710577857792 43.4033395960612)
(-0.841174140611069 -1.45698408400827 3.82977350191774)
(-0.00956874348268881 -0.0165741612508583 0.0500344648428865)
(-1.20008742437404e-05 -2.07870909529324e-05 6.95243289035399e-05)
(6.95708394571367e-09 1.20537641295964e-08 -2.75154065893982e-08)
(5.01507955849078e-09 8.69423374276796e-09 -3.12532357325072e-08)
(1.61082512731672e-09 2.79784712619792e-09 -1.03792715215229e-08)
(1.08309705771787e-10 1.95746330966022e-10 -7.00872265891046e-10)
(-4.6521324373649e-13 4.44133337559371e-12 -5.1382037239483e-12)
(-2.49184973352213e-12 -4.2080856956461e-13 -8.0624283074823e-13)
(-2.33890545420601e-12 -8.28725750632929e-13 -1.59885905088006e-12)
(-163.673995801894 -283.493459232 517.225305788693)
(-93.607377397838 -162.130429909208 621.374718426737)
(-64.6285852114941 -111.938367331629 361.367141705794)