/*--------------------------------*- C++ -*----------------------------------*\
  =========                 |
  \\      /  F ield         | OpenFOAM: The Open Source CFD Toolbox
   \\    /   O peration     | Website:  https://openfoam.org
    \\  /    A nd           | Version:  11
     \\/     M anipulation  |
\*---------------------------------------------------------------------------*/
FoamFile
{
    format      ascii;
    class       volScalarField;
    location    "0.0000599923";
    object      Ma;
}
// * * * * * * * * * * * * * * * * * * * * * * * * * * * * * * * * * * * * * //

dimensions      [0 0 0 0 0 0 0];

internalField   nonuniform List<scalar> 
900
(
0.758842636140189
0.768199291285685
0.776706359664833
0.757503416082121
0.767387183742664
0.776290080977732
0.75540775525253
0.765917981796948
0.775554590802318
0.758843632071045
0.768199037024773
0.776704192798271
0.757504934871844
0.767386852401136
0.77628788238303
0.755407882011618
0.765918399952348
0.775554502501188
0.758842636196012
0.768199288760631
0.776706359812974
0.757503416342741
0.767387181029566
0.776290081097246
0.755407755602176
0.765917979604183
0.775554590612697
0.758843625274299
0.768199057811151
0.776704194132988
0.757504924187795
0.76738687348188
0.776287884250303
0.755407874090755
0.765918414141034
0.775554505649768
0.758842630919288
0.768199321436876
0.776706349182107
0.757503409448522
0.767387207312118
0.776290080269081
0.755407749146406
0.765917993677068
0.775554595392838
0.758843624495115
0.768199059575646
0.776704194983067
0.757504923284596
0.767386875937134
0.77628788448915
0.755407873629244
0.765918416463246
0.775554505811201
0.782213680521142
0.785131756088894
0.784245644669519
0.781958851566608
0.784993562184195
0.784138711844796
0.781482835167554
0.78471610554255
0.783899782466785
0.782211886985937
0.785131627358932
0.784245564350581
0.781957325055726
0.784996378167263
0.784142047777386
0.781481980903801
0.784716200371671
0.783900336553975
0.782213677862974
0.785131748832601
0.784245622794514
0.781958849677589
0.784993556193557
0.784138693805163
0.781482834638261
0.784716103153618
0.783899777302001
0.782211928583205
0.785131736261506
0.784245724050544
0.7819573532175
0.784996458831246
0.784142171504045
0.781481988925989
0.784716261317194
0.783900445421594
0.782213681515105
0.785131793428818
0.784245908425974
0.781958847679828
0.784993594313254
0.784138917640919
0.781482830334118
0.784716115077978
0.783899845869051
0.782211934747131
0.78513175177766
0.784245745323032
0.781957357475014
0.78499647117127
0.784142187447701
0.781481990087606
0.784716269106144
0.783900458798598
0.782837650570055
0.782784260950114
0.782595046588829
0.782837508767657
0.782785050076861
0.782595973415224
0.782837583897933
0.782784210861881
0.782595019964304
0.782837761405629
0.782785280409456
0.782596169648463
0.782838503854148
0.782784918131658
0.782595356330384
0.78283777416497
0.782785291928693
0.782596190098779
0.78190596270764
0.781912198582462
0.781838597836977
0.781900328032214
0.781912676670907
0.781837508730062
0.781905845872827
0.781912148164585
0.781838592506414
0.781900891930045
0.781913308998815
0.781837755818769
0.781906911983758
0.781912632076734
0.781839051235491
0.78190089839796
0.78191331964673
0.781837761055081
0.780092677427682
0.780134383529867
0.780194662794722
0.780098133619159
0.780131896963085
0.780190528919286
0.780092670924808
0.780134412635643
0.780194667938481
0.780099441564357
0.780132495765075
0.780190568363891
0.780092767984608
0.780134423303359
0.780194911939478
0.78009940561014
0.78013250114222
0.78019060700121
0.779458826838115
0.779421075341438
0.77952346901223
0.779449091853513
0.779428967410972
0.779514862736159
0.779458834540274
0.779421094924809
0.779523452148131
0.779448903312189
0.779428223348096
0.779514451749992
0.779458567676799
0.779420874812876
0.779523377476134
0.779448904782495
0.779428260940127
0.779514490345298
0.791019289982817
0.791106729045432
0.791179580398925
0.790981282342197
0.791043578093811
0.791163556183859
0.791019284992989
0.791106726072339
0.791179549535137
0.790980891870866
0.791042848171877
0.791162983813394
0.791018817871906
0.791106304246952
0.791179413309269
0.790980905296062
0.79104287534282
0.791163000495856
0.827909145978378
0.828626509191167
0.828561910918773
0.827810444154326
0.828559548653493
0.828560526712206
0.827909135730732
0.828626504061739
0.828561899674662
0.827810453922055
0.828559520433159
0.82856029917616
0.82790908757032
0.82862639235457
0.828561850468376
0.827810460588286
0.828559528709431
0.8285603042737
0.871046663474548
0.870491819863696
0.869645061751179
0.870932862170178
0.870402979678568
0.869630123440679
0.871046661512526
0.870491820696539
0.869645062298967
0.870932814588311
0.870402936577122
0.869630161782936
0.871046719906889
0.870491878921923
0.869645066797934
0.87093281044753
0.870402933934041
0.869630161631728
0.965977793297313
0.963991327340652
0.961224931577064
0.965061941439505
0.9631540872029
0.961278044776978
0.96597779486615
0.96399133135333
0.961224936656757
0.965062116485349
0.963154246981498
0.961278145454702
0.965977831271828
0.963991356042906
0.961224993618318
0.965062115330795
0.963154246049799
0.961278142656819
0.733324242841002
0.73156115410667
0.729310110075248
0.733324348146804
0.731561252727894
0.729310143678411
0.733324242474708
0.731561153896466
0.729310110025603
0.733324344143376
0.731561246856434
0.72931014019827
0.733324240426252
0.73156115031028
0.729310107093121
0.733324344078399
0.731561246728584
0.729310140282837
0.0907998031539895
0.134413360455036
0.392922495859347
0.583342864006214
0.548478341884326
0.336922688905129
0.096480429573871
0.00886438153529269
0.00016949987795391
4.35433669874018e-07
5.3757708065789e-11
5.97646332342536e-11
3.09325189153864e-11
4.40552341797058e-12
8.66507816618288e-14
0.15667165228848
0.512903696375765
0.747147034060888
0.756782125514321
0.600882207026446
0.393989743229651
0.150103198286536
0.0190713421567492
0.000453877516539443
1.38274259580582e-06
4.22332175801251e-10
4.84747703300507e-11
2.74930011109078e-11
5.20575489332122e-12
1.51305637824367e-13
0.731953584067453
1.14907122447371
1.29681161749896
0.996348110976421
0.74711145219977
0.508738621108289
0.237409882808995
0.0396841312984327
0.00115880812524014
4.05509739217997e-06
1.44590179371899e-09
4.34536370692602e-11
2.74948314324313e-11
6.21545848589334e-12
2.23430050268442e-13
2.20114320167465
2.00652758954781
1.97025914167864
1.55590892787984
0.968951310259915
0.6542219287141
0.327470234445728
0.0670840037576169
0.00237559490368759
9.73291969178442e-06
3.84057909792868e-09
4.10523183997188e-11
2.81704408491224e-11
7.23734861435866e-12
3.05909418870361e-13
0.0561428357837267
0.180402684492633
0.464549140059938
0.671203675361592
0.62501622875211
0.420506684730995
0.127475783226043
0.0103779634632796
0.000144083307110733
2.23638153777655e-07
3.14787216314279e-11
6.39426966704862e-11
3.0552329862632e-11
4.08313837028729e-12
8.17806750005076e-14
0.205640920310138
0.557715837633818
0.798119604657058
0.706744036200656
0.57343579600942
0.404020461498505
0.178749928585375
0.0247496330273484
0.000546330361085984
1.28337378229763e-06
2.6737368604339e-10
5.07815952995112e-11
2.75853284182563e-11
4.9518533369944e-12
1.36239565274197e-13
0.762619839987109
1.12429236845237
1.24373965831589
0.96303065611567
0.742015185904246
0.50825421945277
0.255845573202089
0.0463320719546039
0.00134528459657655
4.18397894698867e-06
1.21450190035287e-09
4.42924169746573e-11
2.75893756280853e-11
6.06689558099336e-12
2.08435870523304e-13
1.83221709084435
1.9283718400533
1.77971020110789
1.29149887506671
0.893418815190002
0.635844751268722
0.33692226423206
0.0724806109457629
0.00250864690606051
9.40516672869665e-06
3.25981701184917e-09
4.16480610444678e-11
2.83450163717717e-11
7.16917791951472e-12
2.92779040842439e-13
0.0907997714308605
0.134413351005028
0.392922460877203
0.58334273237374
0.548478217789339
0.336922647516934
0.0964804478457933
0.00886439036828702
0.000169500246853842
4.35434944959927e-07
5.37575966253906e-11
5.9763396170131e-11
3.09289360286572e-11
4.41106011584602e-12
8.70053770242001e-14
0.156671587795145
0.512903622685447
0.747146986741535
0.756782121406446
0.600882217991069
0.39398971249865
0.150103174287088
0.0190713466167812
0.000453878066964669
1.38274647980799e-06
4.22332632366102e-10
4.84736513922295e-11
2.74899982718088e-11
5.20917690392814e-12
1.51815374805302e-13
0.731953477795857
1.14907114175834
1.29681160938661
0.996348192078508
0.747111467411641
0.508738609008282
0.23740985762466
0.0396841302587469
0.00115880861549437
4.05510284756149e-06
1.44590437433471e-09
4.34536415817239e-11
2.74932936774789e-11
6.21813933919703e-12
2.23952947483122e-13
2.20114335935733
2.00652746003119
1.97025910653107
1.55590891425798
0.968951274386766
0.654221912547123
0.327470220882055
0.0670840026488782
0.00237559512605719
9.7329236782633e-06
3.84058129125549e-09
4.105214672283e-11
2.81694469312613e-11
7.23839119269393e-12
3.06778925471151e-13
0.05614257425494
0.180405687710109
0.464551137146997
0.67120119767402
0.625012978291373
0.42050477666964
0.127476050835526
0.0103782062590714
0.000144091863832716
2.23661167606252e-07
3.14875653218207e-11
6.39499880761695e-11
3.05729678701883e-11
4.06968394209587e-12
7.56003010186458e-14
0.205639987199537
0.557716452741032
0.798122778490947
0.70674870279239
0.573435767690322
0.404018634927764
0.178748420378463
0.0247496335903534
0.000546345425219597
1.28345815588322e-06
2.67399185824247e-10
5.07885075691099e-11
2.75959745769923e-11
4.95311916649862e-12
1.33843940621971e-13
0.762621164907955
1.12429222501494
1.24374050877409
0.963032679506266
0.742015621678956
0.508253545475312
0.255844271711186
0.0463317660449438
0.00134528925651946
4.18408226662834e-06
1.21456193209858e-09
4.42925762425306e-11
2.75979954169832e-11
6.07644478687318e-12
2.07630668689426e-13
1.83222098200598
1.92837164781065
1.77971104419843
1.29149714822609
0.893417878528416
0.63584409424175
0.336921596013048
0.0724802712346417
0.00250863411058421
9.4051827086971e-06
3.25986513187731e-09
4.16472737894269e-11
2.8347502163631e-11
7.17689694777824e-12
2.95596486408349e-13
0.0908007168404873
0.134412874597244
0.392922467739631
0.583346432277775
0.54848191602198
0.336923928879591
0.096479907055308
0.00886411865976827
0.000169488737993335
4.3539484916658e-07
5.37527310405013e-11
5.97506274475542e-11
3.09130678869208e-11
4.42845967971812e-12
9.33885107286349e-14
0.156673360603076
0.512904949202611
0.747147650735343
0.756781913413046
0.600881671148462
0.393990596066322
0.150103937230995
0.0190712186576982
0.000453861324559298
1.38262674329925e-06
4.22285177487732e-10
4.84681982900689e-11
2.74844669950687e-11
5.20391489640099e-12
1.53583734227568e-13
0.731955090028031
1.14907329394453
1.29681135673943
0.996345203771458
0.747110723054609
0.508738869682649
0.237410638074909
0.0396841777816327
0.00115879428943893
4.05493793443221e-06
1.44580124699906e-09
4.34537859452452e-11
2.74872488866726e-11
6.20805717375124e-12
2.22857104518289e-13
2.20113754774666
2.0065313131332
1.97026014786946
1.55590879341121
0.968952167238858
0.654222295624383
0.327470619766548
0.0670840499225867
0.00237558946013293
9.73280938253951e-06
3.8404896929505e-09
4.10509737842895e-11
2.81665600229487e-11
7.23291013751681e-12
3.03576673069494e-13
0.0561425618298285
0.18040580581942
0.464551218535152
0.671201123172456
0.625012875008916
0.420504717571208
0.127476061693899
0.0103782145410223
0.000144092151555065
2.23661938473096e-07
3.14890012942197e-11
6.39513059995253e-11
3.05711740453397e-11
4.0780809718693e-12
7.59236271446891e-14
0.205639974143094
0.557716506373331
0.798122912395568
0.706748871480267
0.573435770854073
0.404018575603106
0.178748371006395
0.0247496338757793
0.000546345938174631
1.28346100316553e-06
2.67397749834474e-10
5.07890836906598e-11
2.75942994691248e-11
4.95816629232636e-12
1.35568733097487e-13
0.762621243336043
1.12429225908595
1.24374056218561
0.963032761385356
0.742015644685023
0.508253526613905
0.255844228952524
0.0463317558989083
0.00134528941914512
4.18408576829836e-06
1.21456106279942e-09
4.42934569410538e-11
2.75968057906492e-11
6.07972365101999e-12
2.09245681353294e-13
1.83222111915861
1.92837166697988
1.77971109206895
1.29149710494195
0.893417853663555
0.635844075766316
0.3369215745763
0.0724802597673265
0.00250863367452814
9.40518324069672e-06
3.2598637596912e-09
4.16477409358071e-11
2.83458950547513e-11
7.17869348365342e-12
2.97304011222297e-13
1.67004288443686
2.75696112360445
2.61756872977091
1.94448868793028
1.11247268038992
0.773103191575444
0.403948325558244
0.0944980788673455
0.00380026031173274
1.71717991188328e-05
7.09830801725347e-09
3.96760127712859e-11
2.88002638743974e-11
8.00783195403328e-12
3.74653095217002e-13
1.51834709884837
2.56380896924351
2.58929689918067
2.01930846375146
1.19218490850736
0.857140541051582
0.464410236459592
0.114860505609317
0.00494361907144479
2.32300765217623e-05
9.82774000052356e-09
3.88402578676407e-11
2.91587051623153e-11
8.45097023423971e-12
4.1707565645861e-13
1.4182508082769
2.31383423276947
2.58023284747229
2.02899596504607
1.24723717315207
0.904657620933844
0.503908882960614
0.12660103871933
0.00559602875019527
2.69688365234821e-05
1.16652440345718e-08
3.79747580426506e-11
2.9261794503511e-11
8.70580441599743e-12
4.42011546236995e-13
1.55881974352525
2.43296811161362
2.29078700275634
1.73986161133215
1.09019751146861
0.76872680075378
0.408663410044091
0.0961015676461868
0.00373997427776588
1.56526777574196e-05
6.02793145179651e-09
4.02739802200525e-11
2.89332687511975e-11
7.9790168492915e-12
3.67489602761309e-13
1.45491600668598
2.37393068097458
2.47383191170508
1.95082217800371
1.16689896859064
0.840532550353924
0.463313715622492
0.113905256522094
0.0047812467852775
2.17508618574885e-05
9.00458994836924e-09
3.92468835196064e-11
2.9263599908432e-11
8.44884412162794e-12
4.12750668749481e-13
1.40884701757798
2.27787920364315
2.55058604159837
2.00459551980707
1.22607598852803
0.888437518576502
0.498252873509464
0.126029449850264
0.00558371707175704
2.68666464935103e-05
1.16008886538472e-08
3.80455315632431e-11
2.92978432677862e-11
8.72671340897348e-12
4.35289246410837e-13
1.67004292553071
2.75696118038869
2.61756875887725
1.94448881329114
1.11247273168031
0.773103185470025
0.403948317717517
0.094498078052392
0.00380026032556995
1.71718000380081e-05
7.09830896008789e-09
3.96763111057543e-11
2.87996902050766e-11
8.00834738530764e-12
3.74934663439298e-13
1.51834709381341
2.56380897884323
2.58929690389583
2.01930848700068
1.1921849113341
0.857140530696095
0.464410230766548
0.11486050682626
0.00494361919140428
2.3230076900823e-05
9.82774045612007e-09
3.88398770842081e-11
2.91575857093975e-11
8.45064352109272e-12
4.17397154208975e-13
1.41825080094509
2.3138342519183
2.58023286775194
2.0289959693913
1.24723718289311
0.904657614529267
0.503908875248924
0.126601039291638
0.00559602887746277
2.69688371088414e-05
1.16652446890527e-08
3.7974512986301e-11
2.92616105694071e-11
8.70594198135953e-12
4.42041336131645e-13
1.55881986376569
2.43296747292359
2.29078710878188
1.73985971560528
1.09019750870025
0.76872674955299
0.408663337383254
0.0961013467664035
0.00373995316818297
1.56525867561967e-05
6.02793080593838e-09
4.0271135889501e-11
2.89316292910176e-11
7.98140388008612e-12
3.69254712339601e-13
1.4549162115613
2.37393117238643
2.47382939860032
1.95082166632203
1.16689838231888
0.840532753812984
0.463313923759162
0.113905161641004
0.00478123245169474
2.17507722806796e-05
9.00457213097122e-09
3.92439056501961e-11
2.92627521094637e-11
8.45084049460721e-12
4.15121418834432e-13
1.40884724654568
2.2778795870456
2.5505850099543
2.00459511031719
1.22607602731706
0.888437943761334
0.498253089494794
0.126029420345343
0.00558371140912672
2.68666075047215e-05
1.16008761989854e-08
3.80424589806533e-11
2.92933131210529e-11
8.7172094702685e-12
4.42510825932664e-13
1.67004198054372
2.75695920796209
2.61756858465234
1.94448487852284
1.11247106867915
0.773103301612009
0.403948534716578
0.0944981068882597
0.0038002609180209
1.71717814232475e-05
7.09827998020447e-09
3.96755384991733e-11
2.88006549300072e-11
8.00796097565699e-12
3.73407402845865e-13
1.51834761101097
2.56380923938747
2.58929685265633
2.01930777665461
1.19218483194527
0.857140835155557
0.464410388938972
0.114860468284746
0.00494361600544786
2.3230071373118e-05
9.82773880775823e-09
3.88386728474973e-11
2.91554587207098e-11
8.44961093442614e-12
4.15009165251286e-13
1.41825120278802
2.3138336666842
2.58023221494124
2.02899585855949
1.24723691290801
0.90465779738958
0.503909094590253
0.126601024563812
0.00559602546235493
2.69688224814031e-05
1.16652443638709e-08
3.79761783535916e-11
2.9265637286096e-11
8.71478793614499e-12
4.35883646081746e-13
1.55881986059215
2.43296745777305
2.29078711494187
1.73985966107409
1.09019751170394
0.768726750453109
0.40866333571827
0.0961013392195912
0.00373995243927536
1.56525836008512e-05
6.02792923204358e-09
4.02725356128276e-11
2.89312883670255e-11
7.98185547970317e-12
3.70704587581202e-13
1.45491620667046
2.37393117654744
2.47382933812499
1.95082165214758
1.16689836546649
0.840532761242329
0.463313931096623
0.113905158344508
0.00478123195057974
2.17507691308926e-05
9.00457058841328e-09
3.92454919905048e-11
2.92629001713741e-11
8.45059505112646e-12
4.16451182430019e-13
1.40884724904524
2.27787959369638
2.55058498450394
2.0045950998385
1.22607602866632
0.888437958195716
0.498253096778618
0.126029419265277
0.00558371120805345
2.68666060985923e-05
1.16008754672902e-08
3.80434880755768e-11
2.92939582112116e-11
8.71712797191816e-12
4.42711690143361e-13
)
;

boundaryField
{
    inlet
    {
        type            calculated;
        value           nonuniform List<scalar> 
24
(
0.733283214768982
0.733283336568414
0.733283214391213
0.733283332546377
0.73328321243785
0.733283332486594
0.733283214768982
0.731574156372691
0.72933830723478
0.733283336568414
0.731574272927965
0.729338344490962
0.733283214391213
0.731574156149255
0.729338307172819
0.733283332546377
0.731574266989428
0.729338340969577
0.73328321243785
0.731574152712528
0.729338304278553
0.733283332486593
0.731574266865169
0.729338341055663
)
;
    }
    outlet
    {
        type            calculated;
        value           nonuniform List<scalar> 
156
(
0.00906842465699085
0.0715594544236381
0.338338014855967
0.559218343346077
0.535226799538423
0.328009139544723
0.0905619211327778
0.00783119645897807
0.000141846400917866
3.45910893915365e-07
2.83448483614685e-11
1.80375800202468e-11
1.02297216293214e-11
1.43865581730435e-12
2.74953050448972e-14
0.00970498226863688
0.138967212189977
0.429687140136779
0.650373031846915
0.6065400693506
0.405673616185171
0.118897117545567
0.00927067303297251
0.000124566443823308
1.89212177271853e-07
6.21440898680214e-12
1.98537422251379e-11
1.00973911022214e-11
1.33080389713571e-12
2.80682040775399e-14
0.009068417977394
0.07155943988699
0.338337970567991
0.559218210975614
0.535226680511385
0.32800910195782
0.0905619386164974
0.00783120403746393
0.000141846712601294
3.45911922283314e-07
2.83450094448782e-11
1.80371930787847e-11
1.02278845462497e-11
1.43952544804981e-12
2.73578418733325e-14
0.00970496469470158
0.138969505731292
0.429688085743652
0.650370347858521
0.606536882594382
0.405671810152107
0.11889740067865
0.00927088654385044
0.000124573397167047
1.8923036136283e-07
6.21144263531152e-12
1.98548782582034e-11
1.00977448406941e-11
1.31397336999339e-12
2.33846108075037e-14
0.00906857725481509
0.0715590372077558
0.338338352564004
0.559221986752968
0.535230232924699
0.328010265290742
0.0905614190109927
0.00783097090531865
0.000141836998652265
3.45879694044559e-07
2.83576725810623e-11
1.80389942757769e-11
1.02282803214845e-11
1.45235328407558e-12
3.18954977370088e-14
0.00970496658844207
0.138969598052805
0.42968812986439
0.650370265445053
0.606536780844194
0.405671754061732
0.118897411892646
0.00927089382866015
0.000124573631199054
1.89230971011395e-07
6.21176978259898e-12
1.98551272011184e-11
1.00961993822482e-11
1.31775892188471e-12
2.37721700343245e-14
3.06518174199128e-15
3.55517718136861e-15
5.31019136269478e-15
4.18850251417138e-15
2.88184181358154e-15
1.44687193557195e-15
3.45712976859333e-16
2.06251175171006e-15
2.05845586373003e-15
4.72901517020545e-15
3.51222338333178e-15
3.14291055346525e-15
1.57237252305197e-15
2.08854211078922e-16
3.13436607980207e-15
3.60538339691817e-15
5.33029245650041e-15
4.4655763741065e-15
3.01178614388464e-15
1.55858129240226e-15
3.4575077927927e-16
2.89142061525632e-15
3.36025063206205e-15
5.60674344613599e-15
5.22143835745881e-15
3.76329249961832e-15
1.98868615328329e-15
3.98448701248061e-16
2.42989074731099e-15
2.44636432902927e-15
3.74050202871393e-15
2.73807581692377e-15
2.2641258019078e-15
1.06958252566174e-15
1.96435095999919e-16
2.76350997896058e-15
3.96772573134298e-15
5.90934019481561e-15
5.78778333583092e-15
4.33355672950665e-15
2.40517947079575e-15
5.0304238696583e-16
0.018056214629954
0.00028199705276616
0.0227210195577095
0.349716067286431
0.00721033640329499
0.0151303395429353
0.0395692426030536
0.227631308659658
0.0180562135871018
0.000281994686041506
0.0227210084968141
0.3497160799108
0.00721028262540715
0.015130164213411
0.0395696956482861
0.2276322362773
0.0180562905130458
0.000282014742909462
0.0227210636340174
0.34971513338568
0.00721027766332574
0.0151301644161893
0.0395697169636794
0.227632282884453
)
;
    }
    sides
    {
        type            calculated;
        value           nonuniform List<scalar> 
84
(
0.758842636140189
0.768199291285685
0.776706359664833
0.758843632071045
0.768199037024773
0.776704192798271
0.758842636196012
0.768199288760631
0.776706359812974
0.758843625274299
0.768199057811151
0.776704194132988
0.758842630919288
0.768199321436876
0.776706349182107
0.758843624495115
0.768199059575646
0.776704194983067
0.782213680521142
0.785131756088894
0.784245644669519
0.782211886985937
0.785131627358932
0.784245564350581
0.782213677862974
0.785131748832601
0.784245622794514
0.782211928583205
0.785131736261506
0.784245724050544
0.782213681515105
0.785131793428818
0.784245908425974
0.782211934747131
0.78513175177766
0.784245745323032
0.782837650570055
0.782837508767657
0.782837583897933
0.782837761405629
0.782838503854148
0.78283777416497
0.78190596270764
0.781900328032214
0.781905845872827
0.781900891930045
0.781906911983758
0.78190089839796
0.780092677427682
0.780098133619159
0.780092670924808
0.780099441564357
0.780092767984608
0.78009940561014
0.779458826838115
0.779449091853513
0.779458834540274
0.779448903312189
0.779458567676799
0.779448904782495
0.791019289982817
0.790981282342197
0.791019284992989
0.790980891870866
0.791018817871906
0.790980905296062
0.827909145978378
0.827810444154326
0.827909135730732
0.827810453922055
0.82790908757032
0.827810460588286
0.871046663474548
0.870932862170178
0.871046661512526
0.870932814588311
0.871046719906889
0.87093281044753
0.965977793297313
0.965061941439505
0.96597779486615
0.965062116485349
0.965977831271828
0.965062115330795
)
;
    }
}


// ************************************************************************* //
