/*--------------------------------*- C++ -*----------------------------------*\
  =========                 |
  \\      /  F ield         | OpenFOAM: The Open Source CFD Toolbox
   \\    /   O peration     | Website:  https://openfoam.org
    \\  /    A nd           | Version:  11
     \\/     M anipulation  |
\*---------------------------------------------------------------------------*/
FoamFile
{
    format      ascii;
    class       volScalarField;
    location    "0.0000599923";
    object      p;
}
// * * * * * * * * * * * * * * * * * * * * * * * * * * * * * * * * * * * * * //

dimensions      [1 -1 -2 0 0 0 0];

internalField   nonuniform List<scalar> 
900
(
775500.487944374
766245.732225261
757625.696606871
775950.003358951
766585.859052502
757836.785759426
776087.351450254
766842.282623056
758002.035060432
775502.364802451
766245.265947125
757623.985031966
775952.609403654
766583.673540656
757835.300531558
776087.151107387
766843.043673863
758002.141164906
775500.487162536
766245.7323312
757625.697177212
775950.002574853
766585.85941101
757836.786181158
776087.350898441
766842.282644495
758002.034912591
775502.364921641
766245.256790742
757623.986967497
775952.607855425
766583.664525022
757835.303794893
776087.148962115
766843.040473307
758002.140712933
775500.481946199
766245.737378276
757625.688858898
775949.999244731
766585.864810197
757836.781273785
776087.349576329
766842.286401311
758002.038959399
775502.366451179
766245.256412253
757623.986811082
775952.608980566
766583.663804455
757835.303830502
776087.149120462
766843.040146234
758002.140706055
751118.341274762
746419.229137509
746208.464928228
751288.60949492
746562.251324722
746323.704830499
751379.371801354
746663.822953816
746403.753704033
751118.293134698
746420.112103137
746209.660599611
751289.011245851
746564.368240926
746325.717258449
751378.935611703
746663.012910667
746403.052744335
751118.344821926
746419.232624504
746208.480566777
751288.61188488
746562.25226588
746323.711317061
751379.372670044
746663.823685974
746403.757267541
751118.261228641
746420.095387834
746209.632446604
751288.994526128
746564.353016512
746325.672406506
751378.93301973
746663.042792198
746403.07230367
751118.324480116
746419.225154792
746208.267483564
751288.600825144
746562.266855897
746323.598626464
751379.369014066
746663.823659124
746403.710189096
751118.256241383
746420.091702964
746209.629249294
751288.991974745
746564.350576874
746325.667935158
751378.932266737
746663.045042933
746403.076893136
746927.793000327
747030.506426371
747096.853152597
746928.692063537
747030.627586562
747097.041982927
746927.843910457
747030.542588226
747096.864006883
746928.576167353
747030.513412817
747096.942501233
746927.061248835
747029.968846394
747096.676213128
746928.58097646
747030.512688254
747096.936488777
748790.334846421
748860.476590263
748887.061174907
748793.916753931
748865.577319516
748888.175870991
748790.443205353
748860.534761738
748887.049478791
748793.518697865
748865.40941355
748888.02442453
748789.722427709
748859.773036605
748886.744573669
748793.504885137
748865.420649197
748888.03327624
753774.926816041
753866.652958216
753883.994915637
753771.711436801
753861.307392192
753882.90386359
753774.917694894
753866.656833976
753883.982625945
753770.621436488
753860.569949286
753882.816556116
753774.686740795
753866.684502587
753883.982614927
753770.633028439
753860.598086989
753882.835192297
759198.820984811
759156.939938688
759137.653036602
759195.695760942
759162.959075012
759136.902254772
759198.77859196
759156.924916993
759137.643710962
759195.859708905
759163.132403025
759137.066407369
759198.605436924
759156.981283766
759137.849854852
759195.843302444
759163.129763625
759137.067859994
756751.220613888
756955.222084553
756979.869182073
756750.617417237
756932.682438314
756971.406788862
756751.197703081
756955.215506273
756979.868520365
756750.908249707
756932.884658215
756971.641601445
756751.279574316
756955.306073819
756980.000909584
756750.89213879
756932.878709037
756971.640351926
733490.475800545
732417.310187896
732096.973704216
733492.258280122
732523.101316044
732102.699915166
733490.460412752
732417.300322307
732096.969496149
733492.239083346
732523.048745378
732102.777558054
733490.516479294
732417.356130472
732097.005572088
733492.234811407
732523.047223775
732102.779651444
706807.73181744
706989.879309661
707282.99761947
706702.439741347
706976.177956674
707288.049272236
706807.727491558
706989.875573958
707282.994250365
706702.720973715
706976.415937228
707288.040237762
706807.771190504
706989.902716192
707283.08615441
706702.721763131
706976.418203971
707288.041717839
644767.765389287
646344.455882477
648065.574683687
645747.809021182
647105.355803066
648136.611671788
644767.770281337
646344.457855978
648065.574536346
645748.012845549
647105.463489874
648136.596196834
644767.827847778
646344.529630911
648065.614317898
645748.010125211
647105.461300541
648136.595711051
799524.135986067
800066.491609098
800190.970292884
799524.314760778
800066.684800873
800191.0091121
799524.135861785
800066.491471361
800190.970173172
799524.314539632
800066.684038125
800191.00860581
799524.136875557
800066.493042384
800190.970491254
799524.31459961
800066.684069438
800191.008600862
70654.3659794984
90333.1792964648
94824.7535532262
100797.762028857
105608.548670788
111624.179882134
106776.021574123
102083.199116155
101342.888428445
101325.050609807
101325.000002266
101324.999991679
101324.999995576
101324.999999356
101324.999999984
69829.1201900366
92346.1876893607
84730.870980785
114470.755049749
127944.067760224
133829.532216459
117804.071621271
103694.844170767
101385.979978752
101325.19487896
101325.000049622
101324.999994135
101324.999996281
101324.999999272
101324.999999973
61814.7317917131
84120.0965802649
72117.4868795403
109968.312187568
137993.190084496
151777.897170616
130745.688131086
106370.308233382
101478.690990817
101325.562588959
101325.000173573
101324.999994386
101324.999996223
101324.999999136
101324.999999958
50159.5476940893
49162.474191392
57148.3846407468
105753.475458348
159911.330438848
166595.778512592
143541.984530033
109981.63662832
101642.68884976
101326.35886642
101325.00047455
101324.999994775
101324.999996251
101324.999999011
101324.999999941
85492.7954320541
95561.2090304672
90063.8011727019
116205.219826061
131070.410595799
126227.663829748
110477.912431743
102208.67661951
101338.436504243
101325.021814499
101324.999991141
101324.999990988
101324.999995658
101324.999999415
101324.999999984
94906.0074451156
101923.609157666
82273.8625194554
109608.674429419
128211.48372328
145176.601771326
124956.3101266
104698.664014192
101400.309716083
101325.172984063
101325.000025414
101324.999993918
101324.999996276
101324.999999327
101324.999999976
90582.2668470276
106570.465283847
89969.7790670108
136313.186028968
160265.718292379
169929.692603277
139100.254220751
107756.317141737
101511.085529183
101325.574069078
101325.000132913
101324.999994341
101324.999996211
101324.999999175
101324.999999961
83065.555169499
70842.3663279709
76026.4453070967
132196.863463543
182604.260380164
186749.407335367
153465.223366774
111494.306712045
101671.178748477
101326.285510896
101325.000378204
101324.999994737
101324.99999624
101324.999999036
101324.999999945
70654.3733460961
90333.1791054981
94824.7592980519
100797.755401585
105608.530664325
111624.172156827
106776.023163185
102083.200040635
101342.888470047
101325.050609953
101325.000002266
101324.999991679
101324.999995576
101324.999999355
101324.999999984
69829.1209734501
92346.1776436536
84730.8812554164
114470.75731806
127944.052611223
133829.512984644
117804.066373332
103694.8449745
101385.980075243
101325.194879546
101325.000049622
101324.999994135
101324.999996281
101324.999999272
101324.999999972
61814.7273914088
84120.087676605
72117.4784421952
109968.287359614
137993.172028384
151777.882139283
130745.681629477
106370.30831071
101478.691084902
101325.562589828
101325.000173573
101324.999994386
101324.999996224
101324.999999136
101324.999999957
50159.5374680938
49162.4720421428
57148.380379025
105753.456843896
159911.301141339
166595.758794166
143541.980048391
109981.636633447
101642.688907743
101326.358867106
101325.00047455
101324.999994775
101324.999996251
101324.999999011
101324.999999941
85492.9556549352
95561.1821642831
90064.0498777077
116204.980673481
131069.832626069
126227.271251055
110477.897007967
102208.700708931
101338.437596133
101325.021817237
101324.999991142
101324.999990987
101324.999995658
101324.999999421
101324.999999986
94906.0817288483
101923.413034139
82274.3727240737
109609.253936784
128211.202455446
145175.971224973
124956.004239882
104698.666185014
101400.312199469
101325.172997579
101325.000025416
101324.999993919
101324.999996276
101324.999999329
101324.999999976
90582.3315097774
106570.430506476
89969.7806432276
136312.921980198
160265.528219705
169929.44352011
139099.97260653
107756.275001278
101511.086566855
101325.574086966
101325.00013292
101324.999994343
101324.999996211
101324.999999176
101324.999999962
83065.4385378369
70842.4533940488
76026.4541355416
132196.715509999
182603.885383611
186749.217965226
153465.108202745
111494.256807896
101671.177291604
101326.285517349
101325.000378211
101324.999994739
101324.99999624
101324.999999036
101324.999999944
70654.0675194139
90333.0992836199
94824.5104015757
100797.921054336
105609.077474688
111624.416800137
106775.97829356
102083.1716653
101342.887170506
101325.05060536
101325.000002265
101324.99999168
101324.999995577
101324.99999935
101324.999999983
69828.9868762759
92346.3408654856
84730.4712168096
114470.613434185
127944.478764507
133830.100634493
117804.234579643
103694.821800056
101385.977138766
101325.19486151
101325.000049616
101324.999994134
101324.999996282
101324.999999272
101324.999999972
61814.7586189852
84120.2052005268
72117.6367961977
109968.950190405
137993.681325034
151778.327573001
130745.885656442
106370.308461427
101478.688306232
101325.562563531
101325.000173559
101324.999994384
101324.999996224
101324.999999136
101324.999999958
50159.773537849
49162.4395387349
57148.4402578433
105753.971735889
159912.140724488
166596.339989438
143542.117322469
109981.63897811
101642.687333279
101326.358847265
101325.000474537
101324.999994774
101324.999996251
101324.999999011
101324.999999942
85492.963067732
95561.18216462
90064.0584701717
116204.973593809
131069.814145985
126227.258725217
110477.896683933
102208.701530191
101338.437632773
101325.021817329
101324.999991142
101324.999990987
101324.999995658
101324.999999419
101324.999999986
94906.0875062226
101923.409972404
82274.3915527959
109609.274740601
128211.193548184
145175.950381445
124955.994178738
104698.666297069
101400.312283902
101325.172998035
101325.000025415
101324.999993919
101324.999996276
101324.999999327
101324.999999976
90582.3351997065
106570.4317271
89969.783014382
136312.91591366
160265.52350984
169929.435992548
139099.963362791
107756.27360937
101511.086602738
101325.574087572
101325.00013292
101324.999994343
101324.999996211
101324.999999175
101324.999999962
83065.437211317
70842.4575384287
76026.4552669674
132196.712475348
182603.87496357
186749.212799748
153465.104582666
111494.255128811
101671.177242266
101326.285517568
101325.000378211
101324.999994739
101324.99999624
101324.999999036
101324.999999945
190127.407856138
48500.6137598858
47411.9704720032
92215.1387058981
174895.017726902
177918.531481761
154844.170282456
113730.300705531
101840.544683045
101327.389308332
101325.000884996
101324.99999504
101324.999996264
101324.999998924
101324.999999928
265937.40264818
66363.4381114711
45585.1949987712
89319.2457172505
185683.086411959
187756.352362765
162300.254713937
116455.8540284
101989.963367117
101328.206698963
101325.001224573
101324.999995198
101324.99999628
101324.99999888
101324.999999921
325708.182361609
90010.3343952222
49061.021834556
93522.7551355813
201059.498192473
204847.614462564
169545.693234971
118089.073399901
102068.905401576
101328.677505691
101325.001443912
101324.999995295
101324.999996286
101324.999998851
101324.999999916
229060.993440522
72402.9687628758
63293.0207766504
116903.308596853
200138.458392634
200095.60344199
163771.062862281
114703.651432915
101827.36012464
101327.112138945
101325.000714424
101324.999995013
101324.999996255
101324.999998937
101324.999999931
300004.17849131
88190.8537825868
56419.679101674
102447.915747261
210626.627393683
208865.107664916
168715.334252686
116660.144518763
101952.275210248
101327.895968069
101325.001075668
101324.999995181
101324.999996275
101324.999998887
101324.999999922
329723.012349796
102423.163218621
53735.3604383707
98648.6182300459
204694.099337433
206137.078983685
169774.358360996
118124.095083689
102067.105996883
101328.65132068
101325.001428281
101324.999995294
101324.999996286
101324.999998851
101324.999999917
190127.391577118
48500.6094720878
47411.9690521491
92215.1331788334
174895.003100561
177918.523504404
154844.167467051
113730.300471757
101840.54468773
101327.389308533
101325.000884996
101324.99999504
101324.999996264
101324.999998925
101324.999999928
265937.406226148
66363.4403974371
45585.1939442131
89319.2404702374
185683.074027035
187756.345087094
162300.254020267
116455.854283358
101989.963381341
101328.206699053
101325.001224573
101324.999995198
101324.999996281
101324.99999888
101324.999999921
325708.217689288
90010.3415851267
49061.0219857833
93522.7522188317
201059.491051984
204847.610208891
169545.693048446
118089.073704257
102068.905420664
101328.677505778
101325.001443912
101324.999995295
101324.999996286
101324.999998851
101324.999999916
229061.105107291
72403.0642118009
63292.991014387
116903.376021171
200138.418716091
200095.658529709
163771.04827704
114703.600580384
101827.356284989
101327.112128069
101325.000714426
101324.999995015
101324.999996255
101324.999998938
101324.99999993
300004.128338169
88190.812111826
56419.7615635758
102447.964046486
210626.764961733
208865.1714631
168715.333073629
116660.111529949
101952.272286715
101327.89595604
101325.001075667
101324.999995181
101324.999996276
101324.999998888
101324.999999922
329722.735656908
102422.978427321
53735.3551045027
98648.6857060137
204694.210534062
206137.109751847
169774.354642889
118124.082879735
102067.104839741
101328.651313895
101325.001428279
101324.999995294
101324.999996285
101324.999998852
101324.999999916
190127.717889009
48500.6858894086
47411.9655531732
92215.2636918775
174895.412233209
177918.751815592
154844.250706872
113730.309038726
101840.544744839
101327.389303729
101325.00088499
101324.999995039
101324.999996264
101324.999998924
101324.999999929
265937.187927656
66363.3403371489
45585.1900877982
89319.358253347
185683.423949977
187756.557585705
162300.273171188
116455.846791266
101989.963046005
101328.206697171
101325.001224572
101324.999995198
101324.999996281
101324.99999888
101324.999999921
325707.100748779
90010.0860916712
49060.9996990284
93522.8220817845
201059.67044158
204847.714107713
169545.692543759
118089.064666432
102068.904889742
101328.677503519
101325.001443911
101324.999995295
101324.999996286
101324.99999885
101324.999999917
229061.112331895
72403.0685562828
63292.9911413267
116903.37949277
200138.419334729
200095.661405693
163771.048056197
114703.598854624
101827.356153727
101327.112127693
101325.000714426
101324.999995014
101324.999996255
101324.999998938
101324.99999993
300004.128120524
88190.8125409411
56419.7643447164
102447.966777523
210626.770606829
208865.174492748
168715.333243885
116660.110407889
101952.272185838
101327.895955618
101325.001075667
101324.999995181
101324.999996276
101324.999998888
101324.999999922
329722.726584186
102422.973362229
53735.3552228675
98648.6883197694
204694.215089661
206137.111156812
169774.354574072
118124.082464125
102067.10479937
101328.651313652
101325.001428279
101324.999995294
101324.999996285
101324.999998852
101324.999999916
)
;

boundaryField
{
    inlet
    {
        type            timeVaryingMappedFixedValue;
        fieldTable      p;
        value           nonuniform List<scalar> 
24
(
800000.043966228
800000.043966228
800000.043966228
800000.043966228
800000.043966228
800000.043966228
800000.043966228
800000.043966228
800000.043966228
800000.043966228
800000.043966228
800000.043966228
800000.043966228
800000.043966228
800000.043966228
800000.043966228
800000.043966228
800000.043966228
800000.043966228
800000.043966228
800000.043966228
800000.043966228
800000.043966228
800000.043966228
)
;
    }
    outlet
    {
        type            freestreamPressure;
        freestreamValue uniform 101325;
        supersonic      false;
        value           nonuniform List<scalar> 
156
(
73725.3651807352
96164.5481222995
100410.132337568
101302.745979858
101428.801087119
101596.588355171
101657.814264057
101413.108909154
101327.915012887
101325.010392717
101325.000001034
101324.999994188
101324.999997039
101324.999999566
101324.999999989
88184.861455646
99988.7232065407
100460.207096435
101793.218268545
102208.889851099
102202.289927116
101940.111051675
101419.136721053
101326.819640676
101325.003358943
101324.999992834
101324.999993785
101324.999997093
101324.999999606
101324.99999999
73725.3705635118
96164.5472459336
100410.132913022
101302.745694053
101428.800635191
101596.588066982
101657.814339906
101413.109036219
101327.915019336
101325.010392745
101325.000001034
101324.999994188
101324.999997039
101324.999999565
101324.999999989
88185.0011625333
99988.7163978496
100460.204223061
101793.217287558
102208.874302994
102202.274060197
101940.107582977
101419.139565542
101326.819830631
101325.00335949
101324.999992833
101324.999993784
101324.999997092
101324.999999608
101324.999999991
73725.1198090138
96164.497781933
100410.104034632
101302.752908827
101428.814305552
101596.597140332
101657.812350345
101413.105136344
101327.914816846
101325.010391844
101325.000001033
101324.99999419
101324.99999704
101324.999999563
101324.999999989
88185.008395517
99988.7164445494
100460.204122808
101793.217300947
102208.873829387
102202.273565101
101940.107482425
101419.139662383
101326.819836988
101325.003359508
101324.999992833
101324.999993784
101324.999997092
101324.999999607
101324.99999999
101324.999999985
101324.999999973
101324.999999959
101324.999999942
101324.999999929
101324.999999921
101324.999999916
101324.999999985
101324.999999976
101324.999999962
101324.999999946
101324.999999931
101324.999999923
101324.999999917
101324.999999985
101324.999999973
101324.999999958
101324.999999941
101324.999999928
101324.999999921
101324.999999916
101324.999999987
101324.999999977
101324.999999963
101324.999999945
101324.999999931
101324.999999922
101324.999999916
101324.999999983
101324.999999973
101324.999999958
101324.999999942
101324.999999929
101324.999999922
101324.999999917
101324.999999987
101324.999999977
101324.999999963
101324.999999946
101324.999999931
101324.999999922
101324.999999916
76783.2473882678
69881.7854145766
62742.2378595165
55277.8858658246
87461.283024359
95308.9501400185
90961.816229747
84392.0280995939
76783.254942947
69881.7857703553
62742.2332684905
55277.8766977509
87461.4174166733
95309.016600338
90961.8819691538
84391.9223033698
76782.9776580363
69881.6552303835
62742.2639818817
55278.0833154171
87461.4229586365
95309.0220292189
90961.8856806759
84391.9212384827
)
;
    }
    sides
    {
        type            zeroGradient;
    }
}


// ************************************************************************* //
