/*--------------------------------*- C++ -*----------------------------------*\
  =========                 |
  \\      /  F ield         | OpenFOAM: The Open Source CFD Toolbox
   \\    /   O peration     | Website:  https://openfoam.org
    \\  /    A nd           | Version:  11
     \\/     M anipulation  |
\*---------------------------------------------------------------------------*/
FoamFile
{
    format      ascii;
    class       surfaceScalarField;
    location    "0.0000599923";
    object      phi;
}
// * * * * * * * * * * * * * * * * * * * * * * * * * * * * * * * * * * * * * //

dimensions      [1 0 -1 0 0 0 0];

internalField   nonuniform List<scalar> 
2478
(
0.000777882855578686
-0.000161896579521163
-1.59614648538239e-10
-1.76647314234935e-10
-0.000981979593171229
0.000596634758398312
-0.000143943918511017
6.56233839838039e-10
6.15161910235036e-10
-0.000125765404619112
-6.25037443135155e-12
-2.47071004876986e-11
0.000438455717976067
0.00046636769316447
-4.02977888348622e-05
3.64135229076728e-10
3.44454957992065e-10
-0.000588353704931738
0.000357847535591105
-3.58389519580823e-05
2.90512209015666e-10
2.51813738697676e-10
-3.13989167912674e-05
-3.48941396827521e-10
-3.67094871861484e-10
0.000263020296822948
0.000155136928292238
-2.52395292762563e-10
-2.7286905238599e-10
-0.000195570629657783
0.000119157546570723
5.40740220341448e-10
5.05568775700186e-10
-2.4851813315574e-11
-4.43319593545783e-11
8.76080377073939e-05
0.000777882783595108
-0.000161896725887061
1.60321037803897e-10
-0.000981979948672629
0.000596633350217126
-0.000143946519233793
-6.52195550278518e-10
-0.000125765080006968
7.66578342687244e-12
0.0004384549534574
0.000466367567632995
-4.02968629272908e-05
-3.63412464509348e-10
-0.000588353776439827
0.0003578463597804
-3.58410832071099e-05
-2.86564504872917e-10
-3.1398959193188e-05
3.50526433020529e-10
0.000263019132330191
0.000155137012147614
2.53459331593566e-10
-0.000195570674371189
0.000119157738193976
-5.36918807049307e-10
2.64823119759238e-11
8.76080320275862e-05
0.00077788285314441
-0.000161896581865363
-1.76378338150041e-10
-0.000981979592869401
0.000596634758386993
-0.000143943924188315
6.15288038184267e-10
-0.000125765407310842
-2.46075553054885e-11
0.000438455717865645
0.000466367691799134
-4.02977898714363e-05
3.44818992315584e-10
-0.000588353704940236
0.000357847535586051
-3.58389553857364e-05
2.52078649349684e-10
-3.1398918232936e-05
-3.67104401429374e-10
0.000263020296859852
0.000155136927979917
-2.72703584377771e-10
-0.000195570629647141
0.000119157546457148
5.05690933246851e-10
-4.4261655999427e-11
8.76080376527145e-05
0.000777882794616229
-0.000161896681162248
1.5923552727044e-10
-0.000981979939662349
0.000596633351387896
-0.000143946459591889
-6.53914908874988e-10
-0.000125765044812668
8.11135284373848e-12
0.000438454958366595
0.000466367572221076
-4.02968427080641e-05
-3.64054339517354e-10
-0.00058835376924492
0.000357846361699968
-3.5841050293564e-05
-2.86192347327251e-10
-3.13989397446421e-05
3.49117654463394e-10
0.000263019135090726
0.000155137012729276
2.52600296257212e-10
-0.000195570672898106
0.000119157739042298
-5.39971425049263e-10
2.61276007882012e-11
8.76080327107737e-05
0.00077788287872564
-0.000161896537293056
-1.6047346253472e-10
-0.000981979589518783
0.000596634761593624
-0.000143943867365341
6.4998796601122e-10
-0.00012576537839602
-9.58041783925834e-12
0.000438455718960636
0.000466367702823124
-4.02977691028741e-05
3.62664606895838e-10
-0.000588353701939736
0.000357847540749305
-3.5838922541098e-05
2.82238740679456e-10
-3.13989020188061e-05
-3.50638370877517e-10
0.000263020295869125
0.000155136929364019
-2.54015351450459e-10
-0.000195570628798377
0.000119157548399325
5.36185431937366e-10
-2.77977911685139e-11
8.76080387355367e-05
0.000777882796335683
-0.000161896677727063
-0.000981979939096619
0.000596633351574926
-0.000143946453603775
-0.000125765041810285
0.000438454959010372
0.00046636757327329
-4.02968410265781e-05
-0.000588353768809162
0.000357846361737374
-3.58410465895241e-05
-3.139893810732e-05
0.000263019135319
0.000155137012978176
-0.000195570672861591
0.000119157739129204
8.76080327698136e-05
0.000438036810372623
7.34624213452801e-07
-8.48854344508241e-10
-8.74430713601604e-10
0.000437375908695406
3.78586541495917e-07
-6.11334190138858e-10
-5.4261290686336e-10
3.30350723967438e-07
-6.02386728714745e-10
-4.46106575725108e-10
0.000437410944485811
0.000262824617292072
2.13857255600212e-07
-4.2234941504413e-10
-4.44479514771692e-10
0.000262424596072673
9.94143956333546e-08
-7.89355208800913e-11
-1.15950556447975e-11
8.2438789882457e-08
-1.356251942892e-10
1.48394677080242e-11
0.000262452023268589
8.75800263020168e-05
-3.32484805908983e-10
-3.6116286925101e-10
8.74550117113024e-05
-5.37481279427009e-10
-4.89567123114747e-10
-6.2738861545189e-10
-4.85954754680853e-10
8.74686605930309e-05
0.000438036814177789
7.38205460367705e-07
8.5126198272464e-10
0.000437376398183153
3.8097691845815e-07
6.03432706905958e-10
3.32663239473673e-07
5.93118542127624e-10
0.000437411678170974
0.000262825122683214
2.1510292607589e-07
4.24288861694284e-10
0.000262426237799463
1.01561023315875e-07
7.00881080603621e-11
8.48204522355773e-08
1.22857067618234e-10
0.000262454016476534
8.75798354747278e-05
3.34037805174627e-10
8.74549534129666e-05
5.29053387958531e-10
6.1400267400806e-10
8.7468710373472e-05
0.000438036810313618
7.34618467820641e-07
-8.75428169734051e-10
0.000437375904535643
3.78597954291972e-07
-5.46457815846571e-10
3.30364299027676e-07
-4.57459164082338e-10
0.000437410937566163
0.000262824617145487
2.13855257546634e-07
-4.45643327253407e-10
0.000262424594300713
9.94207903793069e-08
-1.46351094762985e-11
8.24477792806585e-08
7.76840679457547e-12
0.000262452016324885
8.75800264542921e-05
-3.61568119574326e-10
8.74550115030171e-05
-4.91286590185644e-10
-4.90598002327036e-10
8.7468660132121e-05
0.00043803683470725
7.38257174411235e-07
8.36597540809086e-10
0.000437376468095495
3.80856720205865e-07
5.76620260491368e-10
3.32321970117474e-07
5.23400155681697e-10
0.000437411774918223
0.000262825130709059
2.15127551907049e-07
4.1045942317762e-10
0.000262426261294921
1.01507399289107e-07
5.43751631177855e-11
8.46630490600685e-08
8.84800374243919e-11
0.000262454048974848
8.75798365984408e-05
3.27479107741814e-10
8.74549632774073e-05
5.19649442833753e-10
6.01035100487e-10
8.74687304792598e-05
0.000438036810355191
7.34713418257152e-07
-8.37941624182333e-10
0.000437375954903904
3.78593678657005e-07
-5.64911819850734e-10
3.30237846641246e-07
-5.02692991074562e-10
0.000437411036577735
0.000262824615668768
2.13893929806202e-07
-4.11168417781098e-10
0.000262424613557889
9.9414836048908e-08
-4.25221477495276e-11
8.23653693354169e-08
-6.8594668790542e-11
0.000262452087896053
8.75800244278763e-05
-3.28592263966997e-10
8.74550131725563e-05
-5.09517305408679e-10
-5.83099290856967e-10
8.74686662640583e-05
0.000438036837123836
7.38260437868447e-07
0.000437376477661462
3.80832527906226e-07
3.32271917641964e-07
0.000437411787899554
0.000262825131951505
2.15128547058601e-07
0.000262426264823223
1.01495863013537e-07
8.4640289885478e-08
0.00026245405329564
8.75798366332843e-05
8.74549643456089e-05
8.74687335265008e-05
3.82355736366662e-05
6.06563024579867e-10
8.10159181332138e-10
0.000486825094103816
9.56017898202032e-06
-8.01592514696088e-11
1.56100418452921e-10
0.000292123929089606
-1.90969419097686e-12
2.35185054807754e-10
9.73631984446864e-05
3.82329352771703e-05
-6.37141907104937e-10
0.000486825041654148
9.56007943492428e-06
4.59449929816023e-11
0.000292123458946936
-2.52933076501545e-11
9.73633936075918e-05
3.823564946141e-05
8.11769609323186e-10
0.000486825075093762
9.56021025034977e-06
1.58352825643804e-10
0.000292123922085463
2.40526321353563e-10
9.73631956148746e-05
3.82325093995557e-05
-6.56414543163605e-10
0.000486825136713705
9.55987062578156e-06
4.70560873253034e-11
0.000292123525318367
3.75284862322474e-11
9.73634057389656e-05
3.82350468727073e-05
6.84972432073161e-10
0.000486825221212448
9.55989564756151e-06
-1.52893579958083e-11
0.000292123983479963
-1.44924665258957e-11
9.7363228378299e-05
3.82324536621723e-05
0.000486825146914456
9.55984949459383e-06
0.000292123529190969
9.73634070765685e-05
3.21708690965726e-05
-3.6966499075133e-09
-3.33888202486534e-09
0.000532031492566682
8.05519769989148e-06
-2.12023489997576e-09
-1.75695810862315e-09
0.000319256675984473
-1.22868607622213e-09
-7.54622041720596e-10
0.000106419587399987
3.21860024601458e-05
3.65786265822199e-09
0.000532031063311636
8.05913667217264e-06
2.08643691072038e-09
0.000319259176223704
1.11012374818956e-09
0.000106419455541593
3.21710765986061e-05
-3.32005779818271e-09
0.000532031495374396
8.05533908418258e-06
-1.74131179836662e-09
0.000319256686594799
-7.37363028383183e-10
0.000106419584381139
3.21857325480461e-05
4.00397382241922e-09
0.00053203130891427
8.05887943803154e-06
2.40691725339644e-09
0.000319259433488249
1.46145478103219e-09
0.000106419471895031
3.21689298641333e-05
-3.98397964477323e-09
0.00053203168952266
8.05435024389152e-06
-2.38893324501672e-09
0.00031925650192155
-1.36574862568328e-09
0.00010641960724988
3.21856420445087e-05
0.000532031292216148
8.05879095921715e-06
0.000319259443482125
0.000106419475621887
2.26067519521389e-05
6.72690562535929e-09
7.75001607008531e-09
0.000568763079993557
5.66270602473995e-06
4.01134927141208e-09
5.05375018444937e-09
0.000341314088685706
1.22473493748953e-10
2.08198686388978e-09
0.000113789911576847
2.25780530023981e-05
-6.81877172580654e-09
0.000568765307170284
5.65840457722184e-06
-4.10258359521878e-09
0.000341311177950586
-1.85234845420223e-10
0.000113788813368329
2.26069900073471e-05
7.79929977431882e-09
0.000568763067370794
5.66279516298936e-06
5.10481770152641e-09
0.000341314103869719
2.08835191950777e-09
0.000113789910212945
2.2574248738127e-05
-7.18067216717031e-09
0.000568765401492446
5.65636028979484e-06
-4.34948892500493e-09
0.000341310966856925
-2.37888724832162e-10
0.000113788795345033
2.26052104078459e-05
7.22466033227726e-09
0.00056876282403907
5.66124639989882e-06
4.39140268132477e-09
0.000341314134112575
2.95649586192978e-10
0.000113789941388426
2.25742122338883e-05
0.000568765382211548
5.65631074764825e-06
0.000341310983954983
0.000113788805106595
2.30375396809135e-06
-2.1058558262628e-08
-2.01426030303938e-08
0.000584262195551024
5.63512111042619e-07
-8.86132583261499e-09
-8.00565822699694e-09
0.000350460456121697
-6.44571944782716e-09
-5.01102777864968e-09
0.00011682937087686
2.37521514562461e-06
2.0962704362019e-08
0.000584256310810257
5.87417193591115e-07
8.77498930793421e-09
0.000350470920224378
6.36315158528654e-09
0.000116827796553941
2.30394348241215e-06
-2.01197011393981e-08
0.000584262167993507
5.63612242302728e-07
-7.98986814220821e-09
0.000350460452995517
-4.99429872756257e-09
0.000116829365860726
2.37253882112937e-06
2.07514885782237e-08
0.000584256147809567
5.8581027601246e-07
8.63611728776827e-09
0.000350470565733501
6.24542231537732e-09
0.000116827732400452
2.30232664263398e-06
-2.06772412417546e-08
0.000584261721846586
5.62568103023187e-07
-8.56240827345296e-09
0.000350460305068286
-6.17406544699229e-09
0.000116829369834157
2.37241113490731e-06
0.000584256140159873
5.85748477392744e-07
0.000350470579897234
0.000116827736784562
7.85653330105377e-05
8.22811398716811e-08
8.28296844077557e-08
0.000699671286451565
1.96663762451807e-05
4.08894576797432e-08
4.14285186402176e-08
0.000420080472548058
1.88073639730522e-08
1.95744134517278e-08
0.000140057412652431
7.82760877484618e-05
-8.23697888236298e-08
0.000699711272756272
1.95868574581762e-05
-4.09751010367328e-08
0.000420045982404604
-1.88886163778675e-08
0.000140052895913346
7.85655206753117e-05
8.28358713609949e-08
0.000699671255953948
1.96664643941837e-05
4.14338232652294e-08
0.000420080465256324
1.95797042874227e-08
0.000140057407550882
7.8275000642846e-05
-8.22720560034206e-08
0.000699711220833593
1.95860910938186e-05
-4.09522481205587e-08
0.000420045764850727
-1.88597216053878e-08
0.000140052825351772
7.85642749186754e-05
8.23549936273117e-08
0.000699670973476629
1.96657752923239e-05
4.10342631672767e-08
0.000420080265112128
1.894204506328e-08
0.0001400573987063
7.82748225973641e-05
0.000699711215717491
1.95860089350676e-05
0.000420045771316284
0.000140052826564717
0.00114380303669774
-3.07070088352286e-07
-3.06261394266956e-07
0.00217989899798305
0.000285752778424268
-1.13085970603673e-07
-1.12239508900426e-07
0.00130739114666718
-7.00877953643125e-08
-6.91066502925492e-08
0.000435581566727335
0.00114475666108286
3.06950178097655e-07
0.00217972658236029
0.000286045238693948
1.12970066464305e-07
0.00130750108929196
6.99723183775615e-08
0.00043558349152189
0.00114380326633614
-3.06264514324337e-07
0.00217989895153653
0.000285752895592317
-1.12242688606707e-07
0.00130739113195739
-6.91090167127058e-08
0.000435581561391008
0.00114475531514912
3.0719191159936e-07
0.0021797267511997
0.000286044328882459
1.13117509926151e-07
0.00130750116148562
7.00399897135984e-08
0.000435583439871899
0.00114380119492574
-3.0706825428922e-07
0.0021798991376269
0.000285751935753863
-1.12997590536357e-07
0.00130739113588059
-6.99180348983199e-08
0.000435581577695275
0.00114475505468697
0.00217972674554166
0.00028604420309613
0.00130750116390567
0.000435583441727672
0.000781849533084117
8.20245317009879e-08
8.32145484305682e-08
0.00326083141689449
0.000195420506434177
8.92700058629289e-08
9.0382548909875e-08
0.0019561235691254
5.05816089367127e-08
5.16963929074682e-08
0.000651801028689327
0.000781172420912571
-8.21819487195358e-08
0.00326081111734791
0.000195171880348354
-8.9429435930384e-08
0.00195627917262161
-5.0745768970478e-08
0.000651846592440989
0.000781849846642854
8.32144769638641e-08
0.00326083143140939
0.000195420671937828
9.03839618159085e-08
0.00195612357698754
5.17010696547389e-08
0.000651801030560215
0.000781170388719272
-8.18416118491963e-08
0.00326081245324954
0.00019517107398625
-8.90522541234376e-08
0.00195627985580988
-5.03707901290977e-08
0.00065184663616005
0.000781847035338261
8.20000287219151e-08
0.00326083184384764
0.000195419209184119
8.92109212298009e-08
0.00195612384963145
5.05318512499181e-08
0.000651801129833948
0.000781170065660186
0.00326081243790342
0.000195170915470961
0.00195627985104399
0.000651846635272465
-0.0019037392716587
-4.60794907587974e-07
-4.59765308923402e-07
0.000963000126397581
-0.000476490154513984
-6.29658224745905e-07
-6.28776798215075e-07
0.000575482560901295
-1.79917586903161e-07
-1.79009507735527e-07
0.000190827700292424
-0.00190245952938994
4.60683622421671e-07
0.000960980062765215
-0.000475840134238046
6.29542731645362e-07
0.000573711413966569
1.79804035434585e-07
0.000190807193995061
-0.00190373906142363
-4.59761533421138e-07
0.000963000137216733
-0.000476490043170277
-6.28771663028311e-07
0.00057548256610862
-1.79006533214832e-07
0.000190827700892372
-0.00190246268545574
4.60524514848959e-07
0.000960980399103456
-0.000475841003186537
6.2959475605499e-07
0.000573711592825764
1.79892351332041e-07
0.000190807208863962
-0.00190374082029034
-4.604165504779e-07
0.000963000182949885
-0.00047649097054438
-6.29483829350645e-07
0.000575482606948327
-1.79781002712697e-07
0.000190827729552725
-0.00190246288313256
0.000960980393031901
-0.000475841109272845
0.000573711589912191
0.0001908072082397
4.88159659259942e-06
9.06954454029871e-11
5.08206190888774e-11
1.25774893586363e-06
1.31599049366105e-10
9.00542397271921e-11
4.57160217884681e-11
4.60939955908984e-12
4.8813194006138e-06
-8.8097757984084e-11
1.2576276507113e-06
-1.28922188029346e-10
-4.28454562410516e-11
4.88159143529016e-06
5.08535209927351e-11
1.25774615458561e-06
9.01880793896352e-11
4.66643021966584e-12
4.88139225655459e-06
-9.1092137739085e-11
1.25766537966207e-06
-1.30577325753271e-10
-4.55139629869199e-11
4.88167116038897e-06
8.84056815383602e-11
1.25778671793782e-06
1.27701199603963e-10
4.25495391958436e-11
4.88139720702333e-06
1.25766828803998e-06
2.51122235986363e-05
0.000200073171671721
8.66127020632577e-06
8.66116111819434e-06
0.000281924417632746
-0.000132914506367255
2.87382463929428e-05
2.87385102889313e-05
0.000352380720844062
-0.000744443421807141
-2.60868807131e-05
-2.60840432810822e-05
0.000298784009257083
-0.00196758550504116
3.26821243104724e-05
3.26825602830848e-05
0.000278923033719623
-0.00220349507982061
6.86984198394978e-05
6.86986984710603e-05
0.000152570663518466
-0.00143488080176208
5.4330327417402e-05
5.43300745236266e-05
3.17401110579176e-05
-0.000365270049516094
1.62371540648222e-05
1.62372427506312e-05
1.18747408371829e-06
-2.72316731034484e-05
2.54629761733038e-07
2.54666073117222e-07
5.00332111321149e-09
-4.35147794944487e-07
-1.49513261094177e-08
-1.49355183395568e-08
1.68320609186812e-12
-9.9065765573475e-10
-8.03399721424104e-11
-8.03404486492652e-11
-9.78467524018201e-14
-3.08777092436485e-13
1.73423558499919e-15
1.71938201523614e-15
-9.82500756099847e-14
2.93619295543834e-14
-4.18594195764066e-15
-4.20637916859201e-15
-2.90066365024599e-14
1.98042537230547e-14
-2.52619106189123e-17
-2.28766658394441e-17
-1.31426987348693e-15
4.23966417528732e-15
3.20435952078091e-16
3.29001149240726e-16
1.95156391047391e-16
1.68051336735253e-18
6.93889390390723e-18
0.000305536403483422
4.74571860407174e-05
2.42503713591653e-05
2.42501445390885e-05
0.000579713177638611
-0.000291719982462411
4.25794938114053e-05
4.25795562170491e-05
0.000562883375767459
-0.00029047352078201
4.63872944641278e-06
4.64047973637404e-06
0.000562101926455959
-0.00108070642759444
-2.53610539377821e-05
-2.53581784053247e-05
0.000553576329688809
-0.00164581839366746
-3.23318758086478e-05
-3.23296526861341e-05
0.000325940270730082
-0.00133640603499169
3.15286172948523e-05
3.15280503676552e-05
8.2046576483281e-05
-0.000440504766835925
2.16468715279832e-05
2.16462595682124e-05
3.41905991079708e-06
-4.57990551200901e-05
3.21370414572004e-06
3.21366446576584e-06
1.57305952303835e-08
-9.98838870782835e-07
6.50244362121618e-08
6.50299211760988e-08
6.18405294420393e-12
-2.89661514674307e-09
-7.56327827515328e-11
-7.54539650703843e-11
-7.02223652490619e-14
-8.08460286563784e-13
-4.87058310350008e-14
-4.87181909397671e-14
-6.75528426599681e-14
1.50077433119788e-14
4.22676216943474e-16
4.17092575755174e-16
-2.45193405509769e-14
1.33016427733557e-14
-1.00288700954909e-17
-1.53414607406699e-17
-1.69970374580553e-15
3.79362340152678e-15
2.20960402752546e-16
2.11256793308801e-16
1.96457433654373e-16
1.19804340059648e-17
8.13151629364128e-18
0.000556603933264924
-0.00044965642571687
4.44737459399752e-05
4.4474458574905e-05
0.0006450208619134
-0.000359953595776317
2.83588061083008e-05
2.83588014729013e-05
0.000655777320272797
-0.000148118643269628
2.18526647881531e-05
2.18521494961145e-05
0.000772502723565737
-0.000434583958264869
6.19865747058498e-05
6.19828543666156e-05
0.000757250098978079
-0.00111265286002101
4.55043152579499e-05
4.55041416337421e-05
0.00049236724670682
-0.00105443335908023
4.07952782706016e-05
4.07956045421892e-05
0.000144572508906298
-0.000426599467996311
1.74264130083255e-05
1.74260015678464e-05
7.13875989674911e-06
-5.438704884741e-05
3.70318711924233e-06
3.70307921105208e-06
3.76269360719992e-08
-1.4922451758363e-06
1.13577246394609e-07
1.13576381789672e-07
1.62291509441317e-11
-5.42762662917272e-09
6.566618451255e-13
6.59367634277264e-13
-4.83867503356383e-14
-1.7316786025956e-12
-1.17776231475797e-13
-1.17782140377637e-13
-4.79636946479345e-14
7.5471313226716e-15
9.58217880042689e-16
9.52092137768146e-16
-2.0771904161998e-14
8.92840489041813e-15
-1.21051172558007e-16
-1.21647483752874e-16
-1.8662371994993e-15
2.76037873114809e-15
1.09395999203787e-16
1.0169816377914e-16
1.74339709335669e-16
1.17093834628434e-17
8.40256683676266e-18
0.000430691779536051
5.72369434759161e-05
5.72372396223875e-05
-0.000836248315270768
0.000447757731587503
1.36858734420794e-05
1.36858849241409e-05
-0.000350382579893194
0.000586573870626418
-1.1987488829726e-05
-1.19871504356757e-05
-0.000160158978629478
0.0008417415603109
-2.13951326998414e-05
-2.13945143590395e-05
-0.000119558483064711
0.000843331232329145
-3.5001565130262e-06
-3.50114540313565e-06
-0.000544660527647173
0.000552602306447697
-3.33296064120774e-06
-3.33324539953273e-06
-0.000601778129314451
0.000181430979994948
1.21410081906739e-05
1.21411952367594e-05
-0.000302631819709269
1.08643734351748e-05
3.08169827653934e-06
3.0816295507827e-06
-4.55825107234209e-05
6.78440329105368e-08
9.14963163091463e-08
9.14888974425185e-08
-1.47905967189652e-06
3.29374140266812e-11
-3.80919597947615e-10
-3.80908916821493e-10
-6.13614997680388e-09
-3.19266640035065e-14
-2.21532156768206e-13
-2.21541264066455e-13
-2.10484516101339e-12
-3.26725950981765e-14
3.03956079056311e-16
3.01841884819964e-16
3.40244325769401e-15
-1.61498418804751e-14
-6.83589469752111e-17
-6.88468379528295e-17
4.32195512017897e-15
-1.77782051233311e-15
1.64798730217797e-17
6.9931040125315e-18
1.46616659785215e-15
1.41488383509358e-17
4.60785923306339e-18
1.06143392686331e-16
8.40403436073195e-05
-2.7820665934373e-05
-8.66126304499955e-06
0.000290718206473372
-0.000331914843137862
-2.87382326696823e-05
0.000275659463929746
-0.00100566317084036
2.60869320171956e-05
0.000386626557267075
-0.00198311764513656
-3.26821545954976e-05
0.000452569259880314
-0.00232328320510756
-6.86984341703924e-05
0.000262370414908753
-0.0017274580532455
-5.43303670679438e-05
4.03220683339447e-05
-0.000484728682013554
-1.62371440957633e-05
1.01462959259575e-06
-3.90723129250615e-05
-2.5462856725688e-07
2.5198507825697e-09
-5.82759946372597e-07
1.49518801447509e-08
3.72194354329725e-13
-9.64009464702459e-10
8.03401809055387e-11
-1.05716759131458e-13
-8.84147356022824e-14
-1.73445242543369e-15
-1.04794970444411e-13
2.41497360303766e-14
4.18735142046489e-15
-2.65101525800948e-14
2.097909519716e-14
2.53161207275365e-17
-1.1442669728412e-15
4.07009495551058e-15
-3.20110691426345e-16
1.58076676748387e-16
-3.25260651745651e-18
0.000384359176302377
-0.000218421124968674
-2.42503688629069e-05
0.000618858846046346
-0.000518631046795406
-4.25795383277618e-05
0.000586692965926848
-0.000488347808428626
-4.63868277328605e-06
0.000609946950754226
-0.00121793257685557
2.53611149339754e-05
0.000560506355326902
-0.00167100074150511
3.23318793487058e-05
0.000425091602589417
-0.00142684646476897
-3.15286820293054e-05
0.000120836647302192
-0.000493180635609808
-2.16468919695409e-05
4.69268900649578e-06
-5.50909706137834e-05
-3.21370314169169e-06
1.65724781594221e-08
-1.2451657887796e-06
-6.50241802758306e-08
4.02322023352469e-12
-3.23690062102068e-09
7.56398045326928e-11
-7.38317827014834e-14
-6.52149124633072e-13
4.87055599844577e-14
-7.04453856359422e-14
1.2565469498238e-14
-4.23326738246965e-16
-2.39018874137464e-14
1.39194211712379e-14
1.01372903127395e-17
-1.50292105149941e-15
3.72965547335014e-15
-2.19388309602442e-16
1.58293517182884e-16
-1.16551733542192e-17
0.000689962307946781
-0.00059673861205095
-4.44737697551162e-05
0.000765977454696498
-0.000480989569921885
-2.83588161038231e-05
0.000773099391032361
-0.000141699014214867
-2.18526500411576e-05
0.000919999699711126
-0.000304050531265443
-6.19866459680037e-05
0.0008794776014451
-0.000897372317509814
-4.55044381942836e-05
0.00058102176000486
-0.000928690671951678
-4.07952893259392e-05
0.000179190076064535
-0.000418674193208692
-1.74264328018327e-05
9.00917362619462e-06
-5.65283082364491e-05
-3.70318911947792e-06
4.30185117133476e-08
-1.52005228888229e-06
-1.13577165450623e-07
1.43031063338725e-11
-4.87344089324278e-09
-6.56874728222068e-13
-4.95336193936935e-14
-1.29169873581969e-12
1.17775906215145e-13
-4.87123362480357e-14
7.09718742109011e-15
-9.58543140694434e-16
-2.07174772129393e-14
9.52081295746421e-15
1.21213802883879e-16
-1.7351571568458e-15
2.9024092157437e-15
-1.08257586922678e-16
1.44632569809566e-16
-1.18720137887163e-17
0.000583249325762111
-5.72369515007755e-05
-0.000939655072387484
0.000584531374932827
-1.3685890795428e-05
-0.000407161573193795
0.000671265627230689
1.19874748014788e-05
-6.39447898755055e-05
0.000884497540097814
2.13950979884548e-05
9.05134787665807e-05
0.000923003126411187
3.50000323264617e-06
-0.000311334324696435
0.000639875963367
3.33289514280524e-06
-0.000404726611264043
0.000211630265860999
-1.21410168239544e-05
-0.000245445272885937
1.22262915911368e-05
-3.0817007194466e-06
-3.88144113762849e-05
6.9367484680817e-08
-9.1496308009145e-08
-1.19763025242196e-06
2.81517943180078e-11
3.80922892024866e-10
-4.80524100577358e-09
-3.26668488266624e-14
2.21531939927772e-13
-1.55819508771554e-12
-3.30882782111075e-14
-3.03956079056311e-16
2.84863278798841e-15
-1.61745616900077e-14
6.86299975183324e-17
4.56720165159519e-15
-1.70962419568377e-15
-1.45283091113058e-17
1.63888000392909e-15
-1.45283091113058e-17
9.90960785651751e-17
2.5112271131529e-05
0.000200073175503978
8.66116073684281e-06
0.000281924458622794
-0.000132914346945336
2.87384839875481e-05
0.000352380746352228
-0.000744443308504964
-2.60841902428152e-05
0.000298783973924543
-0.00196758532375835
3.268257781367e-05
0.000278922877545478
-0.00220349479056136
6.86987048083303e-05
0.000152570614280205
-0.00143488049204818
5.43301220278921e-05
3.17401394274204e-05
-0.000365270008628495
1.62372295591041e-05
1.18747650144967e-06
-2.72316864350012e-05
2.54663693371841e-07
5.00333765271564e-09
-4.35148666436602e-07
-1.49365868635696e-08
1.68320934447463e-12
-9.90661861138137e-10
-8.03406413662014e-11
-9.78446924176923e-14
-3.08777092436485e-13
1.71959885567063e-15
-9.82459556417292e-14
2.9357809586128e-14
-4.2052407563109e-15
-2.8998830246818e-14
1.98007842761028e-14
-2.206351421008e-17
-1.31871510239412e-15
4.24638622875673e-15
3.35452152167015e-16
2.00360561475321e-16
8.18572640226556e-18
0.000305536306653421
4.74572658505696e-05
2.42501435614116e-05
0.00057971311272806
-0.000291719895823234
4.25795834019766e-05
0.000562883389249846
-0.000290473402259814
4.64036880486662e-06
0.000562101901403046
-0.00108070644136908
-2.53583337399332e-05
0.000553576177434021
-0.00164581852128891
-3.23297285620253e-05
0.000325940146513932
-0.00133640596698617
3.15281346151211e-05
8.20465717019914e-05
-0.000440504669068309
2.16462999546509e-05
3.41906323249742e-06
-4.5799040490996e-05
3.2136647267172e-06
1.57306372148116e-08
-9.98838895447567e-07
6.50294848948251e-08
6.18407885663586e-12
-2.8966200946081e-09
-7.54668465848159e-11
-7.02204136851514e-14
-8.08461153925522e-13
-4.8717486208355e-14
-6.75492647927989e-14
1.50112127589308e-14
4.1844782847078e-16
-2.45155458433732e-14
1.32964386029277e-14
-1.46909394371786e-17
-1.70284793210573e-15
3.80208017847217e-15
2.10985742765679e-16
1.97324795392362e-16
1.0245710529988e-17
0.000556603850011944
-0.000449656336097298
4.44744492404231e-05
0.000645020794187598
-0.000359953519825685
2.83588039548968e-05
0.000655777254392259
-0.00014811861627644
2.1852151292378e-05
0.000772502583969291
-0.000434583982260867
6.19830323047997e-05
0.000757249974622598
-0.00111265280682741
4.55042602179482e-05
0.000492367141555754
-0.00105443333531125
4.07956059378725e-05
0.000144572485395847
-0.000426599442764233
1.74260351536151e-05
7.13876174174603e-06
-5.43870360227591e-05
3.70308476902359e-06
3.76269806264201e-08
-1.49224460210947e-06
1.13576329030388e-07
1.62291895417291e-11
-5.4276272178945e-09
6.59493510149489e-13
-4.83868587558556e-14
-1.73167491630821e-12
-1.17781327226008e-13
-4.7964345169238e-14
7.54908288658207e-15
9.53555810701001e-16
-2.07680010341771e-14
8.92667016694215e-15
-1.21213802883879e-16
-1.86862244427877e-15
2.76059557158259e-15
1.02673945734377e-16
1.79977560632594e-16
1.04625509644851e-17
0.000430691742376616
5.72372242595559e-05
-0.000836248209076621
0.000447757692716679
1.3685895796363e-05
-0.000350382519457221
0.000586573826819298
-1.19871541143231e-05
-0.000160158965879073
0.000841741421021096
-2.13945028753483e-05
-0.000119558469703784
0.000843331077427504
-3.50096898512719e-06
-0.000544660574225035
0.000552602240352924
-3.33317353921404e-06
-0.000601778210218446
0.000181430981232521
1.21411983849837e-05
-0.000302631825515743
1.08643743682001e-05
3.08163433939763e-06
-4.55825054272725e-05
6.7844055941322e-08
9.14891361567861e-08
-1.47905913258032e-06
3.29374402643738e-11
-3.80912564240232e-10
-6.13614752650697e-09
-3.1926447163072e-14
-2.21540342494608e-13
-2.10484591995491e-12
-3.26729203588283e-14
3.03197137535571e-16
3.40320219921475e-15
-1.61481071569991e-14
-6.85757874097082e-17
4.32228038083071e-15
-1.7784710336366e-15
7.64362531602281e-18
1.46172136894496e-15
8.23993651088983e-18
1.09395999203787e-16
8.40421006617096e-05
-2.78193990065425e-05
-8.66121588240102e-06
0.000290721693685024
-0.000331915191148876
-2.8738991246479e-05
0.000275664004586904
-0.00100566589242761
2.60819334465201e-05
0.000386623728324607
-0.00198312562373495
-3.26817183714343e-05
0.000452565351944117
-0.00232327373306675
-6.86982401684712e-05
0.00026236824490419
-0.00172744372226657
-5.43288679912425e-05
4.03225463389157e-05
-0.000484724808234885
-1.62375148033627e-05
1.01468321919913e-06
-3.90725856358521e-05
-2.54700376178753e-07
2.52015473908244e-09
-5.82784338737678e-07
1.49192691362393e-08
3.72261791704853e-13
-9.64097370730402e-10
8.03341424957492e-11
-1.05723589605144e-13
-8.85216379364895e-14
-1.72366461381745e-15
-1.04845927946517e-13
2.41551570412391e-14
4.20605390794027e-15
-2.65138388674813e-14
2.10372084336052e-14
1.76724954115137e-17
-1.11759559939806e-15
4.18003305580061e-15
-3.36807404882622e-16
1.66750294128271e-16
-9.92044987824237e-18
0.000384358843369668
-0.000218422498899627
-2.42502467450418e-05
0.000618860941903077
-0.000518630442482197
-4.25787386193818e-05
0.000586699299471688
-0.000488345683205343
-4.64214847831017e-06
0.000609948912628101
-0.00121794195653226
2.53562886989547e-05
0.000560505074888469
-0.00167100464693942
3.23294563060224e-05
0.000425086377199694
-0.00142684365059885
-3.15261810515224e-05
0.000120835453297114
-0.000493175510933259
-2.16456523188531e-05
4.69276069062815e-06
-5.50902394495512e-05
-3.21369344734318e-06
1.65735257136096e-08
-1.24516682709227e-06
-6.50372595272712e-08
4.0236929456719e-12
-3.23697126308059e-09
7.52493141582822e-11