/*--------------------------------*- C++ -*----------------------------------*\
  =========                 |
  \\      /  F ield         | OpenFOAM: The Open Source CFD Toolbox
   \\    /   O peration     | Website:  https://openfoam.org
    \\  /    A nd           | Version:  11
     \\/     M anipulation  |
\*---------------------------------------------------------------------------*/
FoamFile
{
    format      ascii;
    class       volScalarField;
    location    "0.0000599923";
    object      rho;
}
// * * * * * * * * * * * * * * * * * * * * * * * * * * * * * * * * * * * * * //

dimensions      [1 -3 0 0 0 0 0];

internalField   nonuniform List<scalar> 
900
(
1.38494363636204
1.37216816326896
1.36015108080401
1.38556613018369
1.3726389460708
1.36044431060132
1.3857432630615
1.3729889725262
1.36067311131421
1.38494624004422
1.3721675421124
1.36014873028227
1.38556970306166
1.37263595384377
1.36044225602364
1.38574296187203
1.37299003111353
1.36067325763973
1.38494363529474
1.37216816340816
1.3601510815772
1.38556612912021
1.37263894656528
1.36044431117242
1.3857432623305
1.37298897256407
1.36067311109909
1.38494624001099
1.3721675293371
1.36014873304274
1.38556970073981
1.3726359413197
1.36044226073844
1.3857429587787
1.37299002666493
1.36067325719857
1.3849436279148
1.37216817056296
1.36015107104411
1.38556612435931
1.37263895410169
1.36044430503793
1.38574326035055
1.37298897772187
1.36067311691036
1.38494624211457
1.37216752879712
1.36014873277836
1.38556970226142
1.37263594030607
1.36044226077189
1.38574295895299
1.37299002619953
1.3606732571971
1.35057969622991
1.34426708025616
1.34726042734715
1.35082041346122
1.34447870550417
1.34744198970131
1.35095470017997
1.34464544999057
1.34758813912366
1.3505796630109
1.34426803357697
1.3472617456575
1.35082105129598
1.34448177962454
1.34744496942343
1.35095413810296
1.34464451808223
1.34758709152631
1.35057970124845
1.34426708557504
1.34726044961399
1.35082041685995
1.34447870709009
1.34744199924884
1.35095470149671
1.34464545116425
1.34758814376279
1.35057962176573
1.34426800699262
1.34726169396935
1.35082102908762
1.34448175501535
1.34744489754105
1.35095413322469
1.3446445577489
1.34758712209214
1.35057967231851
1.34426706847387
1.34726014707937
1.35082040088455
1.34447872430515
1.34744183422147
1.35095469547334
1.3446454504888
1.34758808301784
1.35057961527823
1.34426800137114
1.3472616880176
1.35082102570291
1.34448175120206
1.34744489017531
1.35095413202949
1.34464456070873
1.34758712910824
1.35648178843291
1.35664741332158
1.35677610463498
1.35648308056318
1.35664764925137
1.35677631531347
1.35648186218023
1.35664746351562
1.35677611712266
1.35648290118355
1.35664747404155
1.35677617818199
1.35648072925166
1.35664666573986
1.35677589498488
1.35648290621749
1.35664747114381
1.35677616914162
1.37545399294183
1.3755694755049
1.37563359987091
1.3754597288432
1.37557712102593
1.37563496631919
1.3754541571116
1.37556956143211
1.37563357503105
1.37545913853357
1.37557688566062
1.37563476930803
1.3754530203526
1.37556840332533
1.37563317414795
1.37545911794156
1.37557690206593
1.37563478427099
1.40836855372237
1.40850992966988
1.40855069135574
1.40836438961746
1.40850240333716
1.4085494343713
1.40836855406695
1.40850994091056
1.4085506697641
1.40836274760726
1.40850125145144
1.40854934490581
1.40836811547702
1.40850989793622
1.40855064378661
1.40836276162558
1.40850129195094
1.40854937281929
1.44980947492836
1.44975553833803
1.44973455412328
1.44980617219426
1.44976448449577
1.4497333618039
1.4498094235203
1.44975552305755
1.44973454139551
1.44980634795719
1.44976468757292
1.44973360199858
1.44980910197936
1.44975555704557
1.4497348210102
1.44980631858785
1.44976467976841
1.44973360233208
1.48516129512172
1.48553692665657
1.48563011109676
1.48515415376744
1.48549566329205
1.48561702312117
1.48516126555704
1.48553692156167
1.4856301143622
1.48515457588521
1.48549597253876
1.48561740185757
1.4851614228882
1.48553707544491
1.48563032334494
1.48515454492664
1.48549595869782
1.48561739734493
1.49893613393745
1.49724726813152
1.49680192496903
1.49889888012919
1.49738779043229
1.4968042293189
1.49893611615807
1.4972472580174
1.49680192083784
1.49889879565246
1.49738766459001
1.49680433386685
1.49893615662306
1.49724730298115
1.49680195819764
1.49889878513151
1.49738765834255
1.49680433494849
1.49377189198711
1.49401726200233
1.49451245382173
1.49378194774399
1.49411538425472
1.49452620699854
1.49377188728083
1.49401725806024
1.49451244944524
1.49378232414135
1.49411570596083
1.49452618000439
1.49377189303809
1.49401724293407
1.49451256922306
1.49378232109793
1.49411570587936
1.49452618097686
1.43322750941614
1.43537778789066
1.43783631300243
1.43405731325461
1.43631727013272
1.43798786748408
1.43322751981427
1.43537779185236
1.4378363127171
1.43405761919828
1.43631744332238
1.43798783861931
1.43322755416508
1.43537789989008
1.43783638211151
1.4340576119077
1.43631743838816
1.43798783777094
1.41796403316206
1.41869025603304
1.41884420581037
1.41796427834467
1.41869052025522
1.41884425863602
1.41796403299172
1.41869025584659
1.41884420565208
1.4179642780345
1.41869051919532
1.41884425791849
1.4179640343759
1.41869025797907
1.41884420604808
1.41796427811827
1.41869051923514
1.41884425790307
0.799822712800004
0.878652290152065
0.885142756209069
1.0216632120669
1.15907723973884
1.2129218501333
1.17618692839184
1.14329170359868
1.13809163142136
1.13796260392212
1.13796222663032
1.13796222654838
1.13796222657937
1.13796222660932
1.13796222661435
0.670959889147274
0.617924646531252
0.573993777617904
0.894542997419532
1.25745758067119
1.38670007824765
1.27268109978653
1.15742508374051
1.1384540598783
1.13796377897796
1.13796222700396
1.13796222656804
1.13796222658509
1.13796222660878
1.13796222661425
0.390535252984276
0.34834318738043
0.329535763564663
0.629535029161422
1.18122604094944
1.48021558864498
1.36662618293026
1.17862673490178
1.1391884132683
1.13796666175882
1.1379622279735
1.13796222657017
1.13796222658467
1.13796222660767
1.13796222661412
0.215524762750075
0.185884339047492
0.225248120798192
0.478732828310682
1.10452465564043
1.51568424019703
1.44906847716566
1.20701979380796
1.14050573778452
1.13797298263954
1.13796223033996
1.13796222657321
1.13796222658482
1.13796222660665
1.13796222661398
0.915394734064402
0.873802992646284
0.83744685330919
1.13131586897888
1.36702443859417
1.33532735770168
1.20509376252644
1.14415360025426
1.13805688579808
1.13796238461733
1.13796222654218
1.13796222654298
1.13796222658011
1.13796222660984
1.13796222661437
0.765505796668085
0.625831932126146
0.552764597177974
0.855279432128116
1.22497374117252
1.46155230444553
1.3276248268752
1.16548123394056
1.13856608620925
1.13796359501513
1.13796222681301
1.13796222656638
1.1379622265851
1.13796222660926
1.1379622266143
0.46507951883892
0.416729142253654
0.402606983330249
0.762686001786123
1.27420399377156
1.57840804895387
1.42672064525469
1.18964725744281
1.13944563476489
1.1379667456282
1.13796222765327
1.13796222656986
1.1379622265846
1.13796222660801
1.13796222661417
0.305261861998687
0.254418795483702
0.288158022331908
0.5908781218081
1.20786904056507
1.6086421021625
1.51424258229511
1.21874049806388
1.14073367903674
1.13797240335153
1.13796222958192
1.13796222657292
1.13796222658475
1.13796222660686
1.13796222661402
0.799822764586361
0.878652287879238
0.885142799533553
1.0216631880413
1.15907711329843
1.21292179898818
1.17618694058497
1.1432917102299
1.13809163172952
1.13796260392322
1.13796222663032
1.13796222654839
1.13796222657937
1.13796222660931
1.13796222661435
0.670959901109769
0.617924624287069
0.573993839242824
0.894543026520997
1.25745751861024
1.38669995043253
1.27268105991192
1.15742509034418
1.13845406065483
1.1379637789826
1.13796222700397
1.13796222656804
1.13796222658509
1.13796222660877
1.13796222661425
0.390535253375113
0.348343170857089
0.329535738991523
0.629534944857582
1.18122598638546
1.48021550931377
1.36662613837446
1.17862673568324
1.1391884140142
1.13796666176565
1.13796222797351
1.13796222657017
1.13796222658467
1.13796222660767
1.13796222661412
0.215524738077643
0.185884333438092
0.225248109226788
0.478732777510411
1.10452456798841
1.51568414098468
1.44906844826882
1.20701979401967
1.1405057382414
1.13797298264493
1.13796223033997
1.13796222657321
1.13796222658483
1.13796222660665
1.13796222661398
0.915395954253565
0.873801552947104
0.837447449300956
1.13131351048786
1.36702018980954
1.3353243921517
1.20509369608904
1.14415377402196
1.13805689374921
1.1379623846375
1.13796222654213
1.13796222654288
1.13796222658004
1.13796222660983
1.13796222661437
0.765505221702149
0.62583052208972
0.552766386066824
0.855282130710232
1.22497245730775
1.46154808170561
1.32762260301305
1.16548127040006
1.13856610633662
1.13796359512213
1.13796222681297
1.13796222656633
1.13796222658505
1.13796222660922
1.13796222661428
0.4650790025736
0.416728878288857
0.402606766161095
0.762684557817011
1.27420349688318
1.57840706138876
1.42671882453846
1.18964694751087
1.13944564320483
1.13796674576843
1.1379622276533
1.13796222656984
1.13796222658457
1.13796222660798
1.13796222661415
0.305261316317431
0.254418992756694
0.288157956048848
0.590877431459244
1.20786752041131
1.60864125014392
1.51424196876524
1.21874013267936
1.14073366763109
1.13797240340189
1.13796222958198
1.13796222657292
1.13796222658474
1.13796222660685
1.13796222661401
0.799820623437508
0.87865218058823
0.885141223939314
1.02166373988524
1.15908094402861
1.21292342398028
1.17618659460334
1.14329150674747
1.13809162210199
1.13796260388859
1.13796222663038
1.13796222654849
1.13796222657945
1.13796222660933
1.13796222661435
0.670959279469044
0.617925133605908
0.573991730741127
0.894541931217591
1.25745921062347
1.38670384822895
1.27268233292018
1.15742489928272
1.13845403701782
1.13796377883942
1.13796222700397
1.13796222656809
1.13796222658516
1.13796222660882
1.13796222661427
0.390535247010759
0.348343324485548
0.329536230324855
0.629537328936678
1.18122756154738
1.48021784100826
1.36662752589872
1.17862673046125
1.13918839198322
1.13796666155911
1.13796222797343
1.13796222657019
1.13796222658471
1.13796222660771
1.13796222661414
0.215525264959594
0.185884190428647
0.225248239780262
0.478734219834146
1.10452715980041
1.51568707174725
1.4490693222168
1.20701980544422
1.14050572584324
1.13797298248929
1.13796223033986
1.13796222657321
1.13796222658484
1.13796222660666
1.13796222661399
0.915396009452905
0.873801499245762
0.837447462698618
1.13131343370107
1.36702005409567
1.3353242981454
1.20509369539356
1.14415377994664
1.13805689401602
1.13796238463817
1.13796222654213
1.13796222654288
1.13796222658004
1.13796222660982
1.13796222661437
0.765505209402264
0.625830475139063
0.552766443398186
0.855282218989353
1.22497241378743
1.46154794151619
1.32762253001439
1.1654812719492
1.13856610702074
1.13796359512574
1.13796222681297
1.13796222656633
1.13796222658505
1.13796222660921
1.13796222661428
0.465078985187552
0.416728871088379
0.402606761417874
0.762684511409343
1.27420348258555
1.57840703204027
1.42671876501404
1.18964693730805
1.1394456434966
1.13796674577319
1.1379622276533
1.13796222656984
1.13796222658457
1.13796222660798
1.13796222661415
0.305261307549647
0.254419004106041
0.288157956087415
0.59087741075129
1.20786747259788
1.6086412265814
1.51424194987804
1.21874012040774
1.14073366724499
1.1379724034036
1.13796222958198
1.13796222657292
1.13796222658474
1.13796222660685
1.13796222661401
0.563767746637761
0.1996558769031
0.21026986115941
0.405988140533951
1.03715384200907
1.50993458214031
1.51011686929315
1.23590684716129
1.14211246511712
1.1379812662385
1.13796223358993
1.13796222657521
1.13796222658488
1.13796222660597
1.13796222661388
0.7711633501147
0.27220879818335
0.220279302775686
0.403189588227793
1.03624960028681
1.50808003959645
1.54074420522766
1.25553795484915
1.1433217799186
1.13798792549777
1.13796223631193
1.13796222657642
1.13796222658501
1.13796222660563
1.13796222661383
0.911425140762222
0.349638980585539
0.241888646859523
0.430266936851714
1.09227821263919
1.57106671828681
1.57477174950036
1.26625739281981
1.14393914714711
1.13799178005189
1.13796223809113
1.13796222657718
1.13796222658505
1.1379622266054
1.1379622266138
0.654495781972174
0.277102660347914
0.255144673643801
0.488494370265772
1.13514056012055
1.61045622724159
1.56480180414895
1.2429729564667
1.14200160324436
1.13797905723497
1.13796223224417
1.13796222657499
1.13796222658482
1.13796222660607
1.13796222661391
0.844563194537106
0.336489733342615
0.251289084455864
0.441123114965585
1.12670169979834
1.61457526020157
1.58186552282225
1.25661619845843
1.14300572370173
1.13798542517813
1.13796223513402
1.13796222657628
1.13796222658498
1.13796222660569
1.13796222661385
0.920200044302086
0.384087077335414
0.256553063182297
0.44656185657689
1.10539503960662
1.58094277752714
1.57740238782098
1.26648819537946
1.14392143225844
1.13799156199963
1.1379622379666
1.13796222657717
1.13796222658505
1.1379622266054
1.13796222661381
0.563767703842287
0.19965586048183
0.210269850999155
0.405988120421758
1.03715378963601
1.50993455409716
1.51011685404052
1.23590684573151
1.14211246515429
1.13798126624005
1.13796223358993
1.13796222657521
1.13796222658488
1.13796222660597
1.13796222661388
0.771163349596603
0.272208801411952
0.220279293584778
0.403189567358789
1.03624955188727
1.50808000845568
1.54074420362145
1.25553795718406
1.14332178003682
1.13798792549845
1.13796223631193
1.13796222657642
1.13796222658501
1.13796222660563
1.13796222661383
0.911425209463302
0.349638998871314
0.241888643696567
0.430266925093996
1.09227818725477
1.57106670015873
1.57477174977255
1.26625739534006
1.14393914729956
1.13799178005257
1.13796223809113
1.13796222657718
1.13796222658505
1.1379622266054
1.1379622266138
0.654496054672528
0.277102982152738
0.255144506709473
0.488494555667884
1.13514043353898
1.61045647737094
1.56480178382572
1.24297258797027
1.14200157310334
1.13797905714891
1.13796223224419
1.13796222657501
1.13796222658482
1.13796222660608
1.1379622266139
0.84456321929464
0.336489687648177
0.25128943239925
0.441123360485714
1.12670236569778
1.614575437891
1.58186547099141
1.25661595335033
1.14300570093538
1.13798542508383
1.13796223513402
1.13796222657629
1.13796222658497
1.13796222660569
1.13796222661384
0.920199513511154
0.384086603058481
0.256553132676038
0.446562172095206
1.10539549849058
1.58094279577136
1.57740229200081
1.26648809779761
1.14392142325171
1.13799156194688
1.13796223796658
1.13796222657717
1.13796222658505
1.13796222660541
1.1379622266138
0.563768424229774
0.199656097059183
0.210269950261817
0.405988581721096
1.03715530482572
1.50993536144361
1.5101172981351
1.23590689903443
1.14211246559743
1.13798126620332
1.13796223358988
1.1379622265752
1.13796222658489
1.13796222660597
1.13796222661389
0.771163020678026
0.272208549150535
0.220279412492819
0.403190037480762
1.03625094297219
1.50808092715213
1.54074424095546
1.25553788750911
1.14332177719561
1.13798792548471
1.13796223631191
1.13796222657642
1.13796222658502
1.13796222660563
1.13796222661384
0.911423012885179
0.349638316273901
0.241888672682595
0.4302672121076
1.09227883302171
1.57106713560516
1.57477170312841
1.26625732055079
1.14393914305826
1.13799178003528
1.13796223809113
1.13796222657718
1.13796222658506
1.1379622266054
1.13796222661381
0.654496076503464
0.277103000124276
0.255144506444045
0.48849456602705
1.13514043345583
1.6104564895175
1.56480178485717
1.24297257547454
1.14200157207272
1.13797905714593
1.13796223224419
1.137962226575
1.13796222658481
1.13796222660607
1.1379622266139
0.844563225776901
0.336489692687106
0.251289445348487
0.441123372622831
1.12670238979752
1.61457544703232
1.58186547063222
1.25661594503092
1.14300570014941
1.13798542508052
1.13796223513401
1.13796222657629
1.13796222658497
1.13796222660569
1.13796222661384
0.920199497277056
0.384086591177426
0.256553136486883
0.446562184289668
1.10539551603787
1.58094279754127
1.57740228916622
1.26648809449018
1.14392142293742
1.13799156194499
1.13796223796658
1.13796222657717
1.13796222658505
1.13796222660541
1.1379622266138
)
;

boundaryField
{
    inlet
    {
        type            calculated;
        value           nonuniform List<scalar> 
24
(
1.41862923477614
1.41862923477614
1.41862923477614
1.41862923477614
1.41862923477614
1.41862923477614
1.41862923477614
1.41862923477614
1.41862923477614
1.41862923477614
1.41862923477614
1.41862923477614
1.41862923477614
1.41862923477614
1.41862923477614
1.41862923477614
1.41862923477614
1.41862923477614
1.41862923477614
1.41862923477614
1.41862923477614
1.41862923477614
1.41862923477614
1.41862923477614
)
;
    }
    outlet
    {
        type            calculated;
        value           nonuniform List<scalar> 
156
(
0.827995862018605
0.936024571951503
0.938244457294512
1.02794139346352
1.11321832981089
1.10392954793841
1.11994047135482
1.13583923271363
1.13792545494229
1.13796215990748
1.13796222661908
1.13796222654921
1.13796222658123
1.13796222660961
1.13796222661436
0.990387774939615
0.915349216277025
0.934984284567636
0.991657252818191
1.06612809890971
1.08126863172183
1.11225428356624
1.1353919119742
1.13792838770913
1.13796218164613
1.137962226534
1.13796222654468
1.13796222658183
1.13796222661005
1.13796222661437
0.827995922471569
0.936024562550941
0.938244452146405
1.02794143495029
1.11321839331709
1.10392957421617
1.11994046689189
1.13583923047153
1.13792545486128
1.13796215990729
1.13796222661909
1.13796222654921
1.13796222658123
1.1379622266096
1.13796222661436
0.990389343961679
0.915347888346509
0.934982363680231
0.991657248313818
1.06612933094232
1.08126942206517
1.11225433009996
1.13539184866592
1.13792838568566
1.1379621816422
1.13796222653399
1.13796222654467
1.13796222658182
1.13796222661008
1.13796222661438
0.827993106294446
0.936024803927164
0.938244959839177
1.02794034062446
1.1132164545045
1.10392874552618
1.11994059374491
1.13583929938678
1.13792545738009
1.13796215991333
1.13796222661915
1.13796222654923
1.13796222658124
1.13796222660958
1.13796222661435
0.990389425193972
0.915347832204818
0.934982289375878
0.991657242676447
1.06612937070847
1.08126944789649
1.11225433130451
1.13539184650801
1.13792838561758
1.13796218164207
1.13796222653399
1.13796222654467
1.13796222658182
1.13796222661006
1.13796222661437
1.13796222661431
1.13796222661418
1.13796222661402
1.13796222661383
1.13796222661368
1.1379622266136
1.13796222661354
1.13796222661431
1.13796222661422
1.13796222661406
1.13796222661387
1.13796222661371
1.13796222661361
1.13796222661355
1.13796222661431
1.13796222661418
1.13796222661401
1.13796222661382
1.13796222661368
1.1379622266136
1.13796222661354
1.13796222661434
1.13796222661422
1.13796222661406
1.13796222661387
1.13796222661371
1.13796222661361
1.13796222661354
1.13796222661429
1.13796222661418
1.13796222661401
1.13796222661383
1.13796222661369
1.1379622266136
1.13796222661355
1.13796222661433
1.13796222661422
1.13796222661406
1.13796222661387
1.13796222661371
1.13796222661361
1.13796222661354
0.862338368266902
0.784829332644135
0.70464640214548
0.620815653416382
0.982261400177241
1.07039708973722
1.02157523744091
0.947791169057249
0.862338453112099
0.78482933663982
0.704646350584522
0.620815550451452
0.982262909512324
1.07039783614071
1.02157597574796
0.947789980879536
0.862335338976847
0.78482787056968
0.704646695520906
0.620817870936027
0.982262971753081
1.07039789711146
1.02157601743137
0.947789968919987
)
;
    }
    sides
    {
        type            calculated;
        value           nonuniform List<scalar> 
84
(
1.38494363636204
1.37216816326896
1.36015108080401
1.38494624004422
1.3721675421124
1.36014873028227
1.38494363529474
1.37216816340816
1.3601510815772
1.38494624001099
1.3721675293371
1.36014873304274
1.3849436279148
1.37216817056296
1.36015107104411
1.38494624211457
1.37216752879712
1.36014873277836
1.35057969622991
1.34426708025616
1.34726042734715
1.3505796630109
1.34426803357697
1.3472617456575
1.35057970124845
1.34426708557504
1.34726044961399
1.35057962176573
1.34426800699262
1.34726169396935
1.35057967231851
1.34426706847387
1.34726014707937
1.35057961527823
1.34426800137114
1.3472616880176
1.35648178843291
1.35648308056318
1.35648186218023
1.35648290118355
1.35648072925166
1.35648290621749
1.37545399294183
1.3754597288432
1.3754541571116
1.37545913853357
1.3754530203526
1.37545911794156
1.40836855372237
1.40836438961746
1.40836855406695
1.40836274760726
1.40836811547702
1.40836276162558
1.44980947492836
1.44980617219426
1.4498094235203
1.44980634795719
1.44980910197936
1.44980631858785
1.48516129512172
1.48515415376744
1.48516126555704
1.48515457588521
1.4851614228882
1.48515454492664
1.49893613393745
1.49889888012919
1.49893611615807
1.49889879565246
1.49893615662306
1.49889878513151
1.49377189198711
1.49378194774399
1.49377188728083
1.49378232414135
1.49377189303809
1.49378232109793
1.43322750941614
1.43405731325461
1.43322751981427
1.43405761919827
1.43322755416508
1.4340576119077
)
;
    }
}


// ************************************************************************* //
