/*--------------------------------*- C++ -*----------------------------------*\
  =========                 |
  \\      /  F ield         | OpenFOAM: The Open Source CFD Toolbox
   \\    /   O peration     | Website:  https://openfoam.org
    \\  /    A nd           | Version:  11
     \\/     M anipulation  |
\*---------------------------------------------------------------------------*/
FoamFile
{
    format      ascii;
    class       volScalarField;
    location    "0.0000599923";
    object      T;
}
// * * * * * * * * * * * * * * * * * * * * * * * * * * * * * * * * * * * * * //

dimensions      [0 0 0 1 0 0 0];

internalField   nonuniform List<scalar> 
900
(
1886.61144616907
1881.45232763108
1876.72238455531
1886.85692216932
1881.64190038101
1876.84065472341
1886.94967734699
1881.79144942019
1876.93424279183
1886.61246531086
1881.45203442457
1876.72138801942
1886.85839368782
1881.64063768397
1876.83981089453
1886.94960036687
1881.79186612053
1876.9343036797
1886.61144572095
1881.45232770034
1876.72238490128
1886.85692171088
1881.64190058315
1876.84065497998
1886.94967700073
1881.79144942089
1876.93424272248
1886.61246564609
1881.45202945872
1876.72138900507
1886.85839308492
1881.64063272267
1876.83981247199
1886.94959936308
1881.7918643637
1876.93430316908
1886.611443084
1881.45233028269
1876.72237882934
1886.85692009648
1881.64190350478
1876.84065128951
1886.94967648226
1881.79145157075
1876.93424472688
1886.61246650153
1881.45202926977
1876.7213889824
1886.85839374877
1881.64063234348
1876.83981251404
1886.94959951076
1881.79186419896
1876.93430315408
1873.78880166316
1870.81026620346
1866.12661304441
1873.87957757876
1870.87420621754
1866.16331446163
1873.91967014011
1870.89671152777
1866.16106266976
1873.78872765773
1870.81115251811
1866.12777716478
1873.87969481965
1870.87523346472
1866.16421966601
1873.91936195624
1870.89597845005
1866.16076085698
1873.78880354945
1870.81026754094
1866.12662131107
1873.87957882506
1870.87420636921
1866.1633174581
1873.91967048014
1870.89671172929
1866.16106515492
1873.78870528618
1870.81114762056
1866.12777835411
1873.87968392476
1870.87522955686
1866.16420706971
1873.91936225861
1870.89599813255
1866.16076743127
1873.78879294073
1870.81027261862
1866.12650747895
1873.87957340097
1870.87421897642
1866.16326423568
1873.91966971729
1870.89671260181
1866.1610315698
1873.78870184537
1870.81114620826
1866.12777860217
1873.87968225638
1870.87522874945
1866.16420609053
1873.91936203854
1870.89599965394
1866.16076918987
1855.2273621101
1855.25595818355
1855.24474262355
1855.22782799728
1855.25593644475
1855.24492346053
1855.22738769881
1855.25597934994
1855.24475250215
1855.22778546637
1855.25589249807
1855.24486393293
1855.22699319412
1855.25564543979
1855.24458990855
1855.22779052647
1855.25589466135
1855.24486136409
1834.19983609224
1834.21765167
1834.19726245694
1834.20096119369
1834.21995037994
1834.19817065398
1834.19988259872
1834.21767957459
1834.19726693061
1834.20077332799
1834.21985296302
1834.19806241116
1834.19963291178
1834.21735809436
1834.19705466391
1834.20076695297
1834.21985860771
1834.19806414021
1803.25795350115
1803.29637031957
1803.28566704073
1803.25559300229
1803.29321923597
1803.28466649455
1803.2579312394
1803.29636519933
1803.28566528638
1803.25508779639
1803.29292996571
1803.28457219296
1803.25794029244
1803.29648640386
1803.28569851751
1803.25509757904
1803.29294542209
1803.2845810346
1764.31887370968
1764.28718138226
1764.26789502277
1764.31563012695
1764.29028281614
1764.26760117803
1764.31883775209
1764.28716506738
1764.26788883877
1764.31579723853
1764.29043849477
1764.26769036855
1764.31882664659
1764.28725470234
1764.26802764614
1764.3157948516
1764.29044185851
1764.26769333866
1716.76952862595
1716.79810953623
1716.74632223066
1716.77641527981
1716.79467586345
1716.74225446949
1716.76951082561
1716.79810050454
1716.74631695655
1716.77658711633
1716.79477711928
1716.74234934463
1716.76951469243
1716.79812807552
1716.74637570686
1716.77658635367
1716.79477962203
1716.74235172552
1648.7083546723
1648.15312918387
1647.92243859931
1648.75333854331
1648.23649694964
1647.93279106414
1648.70833964016
1648.15311811692
1647.9224336754
1648.75338831496
1648.23651718116
1647.93285073116
1648.7084211559
1648.15319420601
1647.92247374924
1648.75339028524
1648.23652063426
1647.93285425245
1594.22456645822
1594.3735101687
1594.50603930471
1593.97634692972
1594.23790703784
1594.50275446989
1594.22456172383
1594.37350595099
1594.50603637867
1593.9765796089
1594.23810042214
1594.50276290258
1594.22465414361
1594.37358330322
1594.50611577627
1593.97658463699
1594.23810562059
1594.50276520173
1515.72589551736
1517.15619668354
1518.5950968573
1517.15139722627
1517.94872098045
1518.6014884738
1515.72589602097
1517.15619712851
1518.59509681339
1517.15155243008
1517.9487905543
1518.6014826985
1515.7259950206
1517.1562514119
1518.59511674038
1517.1515537518
1517.94879063332
1518.60148245622
1899.76049487105
1900.07605283831
1900.16547970905
1899.76059116925
1900.07615777171
1900.16550114477
1899.76049480395
1900.0760527609
1900.16547963677
1899.76059105934
1900.07615737981
1900.16550090346
1899.76049535829
1900.07605363586
1900.16547986177
1899.76059108963
1900.07615740084
1900.16550091235
297.630723117179
346.387920802933
360.944885038148
332.411180612065
306.986434790524
310.06871544661
305.865064550305
300.835932659999
300.018846497967
300.000050374684
300.000000002533
299.999999992788
299.999999996159
299.999999999455
299.999999999989
350.648915973542
503.519091659265
497.355557253854
431.147443977047
342.814592013712
325.163589095554
311.86970910296
301.853879448454
300.050864116765
300.000167743268
300.000000044242
299.999999994878
299.999999996737
299.999999999349
299.999999999979
533.290975956871
813.62620912953
737.344624892315
588.545641193478
393.601849623292
345.474539508557
322.336975658467
304.072131443575
300.131643265181
300.00049646119
300.000000155631
299.999999995058
299.999999996678
299.999999999237
299.99999999997
784.131543397
891.093793022259
854.821174447084
744.275851040266
487.79383866862
370.329020159484
333.7509618301
306.999928739502
300.269457619935
300.001187677827
300.000000422887
299.99999999541
299.999999996719
299.999999999135
299.999999999958
314.668736821729
368.468695384289
362.347697666879
346.078202364598
323.04339810819
318.492556197278
308.8780944939
300.978811085954
300.014826243785
300.000022933551
299.99999999283
299.99999999217
299.999999996204
299.99999999949
299.999999999983
417.712727947359
548.718451049296
501.480621315083
431.786824387898
352.640862946045
334.668435179513
317.113926998704
302.669279954764
300.063745922293
300.000151415525
300.000000022906
299.999999994673
299.999999996719
299.999999999386
299.999999999978
656.218483755271
861.619419022139
752.918275966847
602.177579705015
423.773856883562
362.729162853062
328.489480763766
305.180669021211
300.15967865264
300.000508340681
300.000000119669
299.99999999501
299.999999996659
299.999999999263
299.999999999968
916.813314529939
938.158798389996
888.927739679
753.799300204614
509.358484630831
391.140052595971
341.465640245736
308.229312294469
300.293604912314
300.001123207386
300.000000337471
299.999999995375
299.999999996707
299.999999999155
299.999999999958
297.630734878104
346.387920966668
360.944889238566
332.411166573659
306.986415937009
310.068707061948
305.865065931452
300.835933639532
300.018846539893
300.000050374826
300.000000002534
299.999999992788
299.999999996159
299.999999999454
299.999999999989
350.648913655781
503.51905501067
497.355564167248
431.14743849433
342.814568342703
325.163572339327
311.869704981027
301.853880065885
300.050864197665
300.000167743775
300.000000044241
299.999999994878
299.999999996738
299.999999999349
299.999999999979
533.290937460655
813.626161605185
737.344593610115
588.545587130108
393.601816302853
345.474523809953
322.33697013865
304.07213146302
300.131643346927
300.000496461963
300.000000155632
299.999999995058
299.999999996678
299.999999999237
299.99999999997
784.131473300896
891.093780956455
854.821154614287
744.275799012873
487.793788009406
370.329000567685
333.750958065339
306.999928699966
300.269457670941
300.001187678438
300.000000422887
299.99999999541
299.999999996719
299.999999999135
299.999999999957
314.668907102828
368.469198891456
362.348440390083
346.078211609506
323.042977646707
318.49227297929
308.878068400152
300.978836312235
300.014827380273
300.000022936343
299.999999992848
299.999999992191
299.999999996224
299.999999999511
299.99999999999
417.713368636162
548.71863148944
501.482108219636
431.787744890727
352.640458923218
334.667948540116
317.113681906924
302.669276761968
300.063747966651
300.000151427333
300.000000022924
299.999999994688
299.999999996735
299.9999999994
299.999999999982
656.219680643191
861.619683615606
752.918695287382
602.177553325878
423.773519548942
362.728858113326
328.489234926294
305.180629180602
300.159679497648
300.000508356676
300.000000119682
299.999999995019
299.999999996669
299.999999999273
299.999999999973
916.813666121459
938.159223961543
888.928047378424
753.799337256065
509.358079659478
391.139863134427
341.465522354164
308.229266741653
300.293603611821
300.001123213216
300.000000337478
299.999999995379
299.99999999671
299.999999999158
299.999999999961
297.63024335156
346.387657181867
360.944584326409
332.411533314173
306.986990836902
310.068971220299
305.865027372068
300.835903560933
300.018845230656
300.000050370356
300.000000002514
299.999999992766
299.999999996139
299.999999999435
299.999999999983
350.648565157015
503.519529958934
497.354984289305
431.147424473015
342.815248895749
325.164086158074
311.869838333572
301.853862433883
300.050861736956
300.000167728125
300.000000044219
299.999999994862
299.999999996722
299.999999999336
299.999999999975
533.291215559453
813.626939489066
737.345113283862
588.546905716831
393.602744115772
345.474993493471
322.337145875123
304.072133241073
300.131640933082
300.000496438551
300.000000155612
299.99999999505
299.999999996669
299.999999999228
299.999999999966
784.133246791037
891.093877376214
854.821554823803
744.277180385212
487.795204444344
370.32957644013
333.751075954049
306.999932339018
300.269456283869
300.001187660725
300.000000422875
299.999999995407
299.999999996716
299.999999999133
299.999999999956
314.668915411807
368.469221537818
362.348469162619
346.078214014757
323.042964170314
318.492263796258
308.878067672464
300.978837172103
300.014827418411
300.000022936435
299.999999992848
299.999999992191
299.999999996224
299.999999999509
299.99999999999
417.713400775998
548.718656171789
501.482170972922
431.787782276394
352.640446952568
334.667932591251
317.113673810061
302.669276683601
300.063748036209
300.000151427731
300.000000022923
299.999999994688
299.999999996735
299.999999999399
299.999999999981
656.21973190618
861.619708371879
752.918724000903
602.177563167443
423.77351185023
362.728848789591
328.489226801861
305.180627855862
300.159679526891
300.000508357217
300.000000119682
299.999999995018
299.999999996669
299.999999999272
299.999999999973
916.813677813263
938.159236994902
888.928060488481
753.799346369907
509.358070756596
391.139858044717
341.465518558468
308.229265203362
300.293603567735
300.001123213414
300.000000337478
299.999999995379
299.99999999671
299.999999999157
299.999999999961
1136.25809371173
818.460312131486
759.702343316637
765.281764881037
568.154886204289
397.004602939912
345.475130004225
310.043719107749
300.430714482566
300.00205475792
300.000000781337
299.999999995669
299.999999996741
299.999999999059
299.999999999946
1161.8913810909
821.408529265185
697.240510837498
746.394150186593
603.726805486203
419.471767761557
354.912378750485
312.510034888599
300.553263292921
300.002719261608
300.00000106915
299.999999995817
299.999999996757
299.999999999019
299.999999999938
1204.03788898136
867.371241265684
683.366355251053
732.338399223153
620.188647131309
439.307654922854
362.745167848322
314.21014970207
300.623567081636
300.003097020152
300.000001249512
299.999999995904
299.999999996761
299.999999998992
299.999999999932
1179.17096418487
880.335402936604
835.79892044782
806.305697170136
594.036864401878
418.621095557798
352.622741918532
310.919565579623
300.42098097152
300.00181648838
300.000000631096
299.999999995646
299.999999996733
299.99999999907
299.999999999947
1196.81670143393
883.047809937472
756.466110207202
782.484602679199
629.849534825164
435.853049858829
359.349863951081
312.789629088544
300.525276664598
300.002458427362
300.000000938808
299.999999995802
299.999999996751
299.999999999023
299.999999999937
1207.25634817712
898.464614917743
705.692416758661
744.289462588818
623.907635807083
439.311382082903
362.628632782639
314.246056943939
300.622922701025
300.003076978402
300.000001236063
299.999999995902
299.999999996761
299.999999998993
299.999999999932
1136.25808267653
818.460307090406
759.702357274579
765.281756923818
568.154867379978
397.004592512703
345.475127212135
310.043718829131
300.43071448661
300.002054758106
300.000000781337
299.999999995669
299.999999996742
299.99999999906
299.999999999946
1161.89139750379
821.408547817033
697.240523799268
746.394144973249
603.726793416006
419.471760168565
354.912377603584
312.510034991608
300.553263303759
300.002719261697
300.00000106915
299.999999995818
299.999999996757
299.999999999019
299.999999999938
1204.03792881883
867.371265187468
683.366366293239
732.338396395576
620.188639518852
439.307650869648
362.745167386551
314.210149886521
300.623567097794
300.003097020234
300.000001249512
299.999999995904
299.999999996761
299.999999998992
299.999999999932
1179.17104771825
880.335541132727
835.799074271231
806.305856185649
594.036812878876
418.621145788621
352.622715094171
310.919519913416
300.420977572464
300.001816478865
300.000000631096
299.999999995646
299.999999996733
299.999999999072
299.999999999947
1196.81646627284
883.047512607124
756.466168414599
782.484536067816
629.849573951649
435.853135023743
359.349873214114
312.789601649692
300.525274032735
300.002458416608
300.000000938806
299.999999995802
299.999999996753
299.999999999025
299.999999999939
1207.25603145756
898.464103350892
705.692155556199
744.289445807404
623.907715730868
439.311442585126
362.628646869045
314.246048690101
300.622921659816
300.00307697222
300.000001236061
299.999999995902
299.999999996761
299.999999998993
299.999999999932
1136.25858089233
818.460626837425
759.701942574417
765.28197049226
568.155366442548
397.004889688269
345.475211332523
310.043728812064
300.430714538515
300.002054753566
300.000000781334
299.999999995669
299.999999996741
299.999999999058
299.999999999945
1161.89093932148
821.408070543776
697.240088439888
746.394258923908
603.727120692531
419.471979382592
354.912410882194
312.510032228994
300.553263062451
300.002719259747
300.00000106915
299.999999995817
299.999999996756
299.999999999017
299.999999999936
1204.03670163679
867.370496523261
683.365973973931
732.338454950503
620.188826201988
439.307751925518
362.74517705114
314.210144397042
300.623566648671
300.0030970181
300.000001249511
299.999999995904
299.999999996761
299.999999998992
299.999999999932
1179.17104557775
880.335536862246
835.799076816986
806.305863031185
594.036814758588
418.621148648111
352.622714386229
310.919518361217
300.420977456325
300.001816478535
300.000000631096
299.999999995646
299.999999996733
299.999999999071
299.999999999947
1196.81645621867
883.047503680194
756.466166722057
782.484535397767
629.849577360264
435.853138878226
359.349873658343
312.78960071204
300.525273942033
300.002458416232
300.000000938806
299.999999995802
299.999999996753
299.999999999025
299.999999999939
1207.25601953677
898.464086711858
705.692146628289
744.289445203169
623.907719712281
439.311445087514
362.628647373699
314.246048405105
300.622921623501
300.003076972
300.000001236061
299.999999995902
299.999999996761
299.999999998993
299.999999999932
)
;

boundaryField
{
    inlet
    {
        type            timeVaryingMappedFixedValue;
        fieldTable      T;
        value           nonuniform List<scalar> 
24
(
1899.99997002303
1899.99997002303
1899.99997002303
1899.99997002303
1899.99997002303
1899.99997002303
1899.99997002303
1899.99997002303
1899.99997002303
1899.99997002303
1899.99997002303
1899.99997002303
1899.99997002303
1899.99997002303
1899.99997002303
1899.99997002303
1899.99997002303
1899.99997002303
1899.99997002303
1899.99997002303
1899.99997002303
1899.99997002303
1899.99997002303
1899.99997002303
)
;
    }
    outlet
    {
        type            freestream;
        freestreamValue uniform 300;
        value           nonuniform List<scalar> 
156
(
300
346.146730721063
360.573678633496
332.036136424243
306.982368186957
310.077500971406
305.828755431032
300.822086941525
300.018325358495
300.000048356354
300.000000001849
300
300
300
300
300
368.04141978321
362.011399658212
345.851561809905
323.006877959321
318.463388168056
308.797306873737
300.958491936998
300.014308884077
300.000021800025
300
300
300
300
300
300
346.146731042939
360.57368267841
332.0361220868
306.982349306622
310.077492710805
305.828756877935
300.822087912249
300.018325398947
300.000048356489
300.000000001849
300
300
300
300
300
368.041928653439
362.01213304321
345.851560047865
323.006455552439
318.463105948903
308.797283447098
300.958517159077
300.014309979994
300.000021802682
300
300
300
300
300
300
346.146463733903
360.573383866253
332.036499213785
306.982925331191
310.077753170048
305.828716252017
300.822058092133
300.01832413531
300.000048352228
300.00000000183
300
300
300
300
300
368.041951398715
362.012161451558
345.85156205945
323.006442007719
318.463096798154
308.797282808084
300.958518018447
300.014310016766
300.000021802771
300
300
300
300
300
300
300
300
300
300
300
300
300
300
300
300
300
300
300
300
300
300
300
300
300
300
300
300
300
300
300
300
300
300
300
300
300
300
300
300
300
300
300
300
300
300
300
300
300
300
300
300
300
300
300
300
300
300
300
300
300
300
300
300
300
300
300
300
300
300
300
)
;
    }
    sides
    {
        type            zeroGradient;
    }
}


// ************************************************************************* //
