/*--------------------------------*- C++ -*----------------------------------*\
  =========                 |
  \\      /  F ield         | OpenFOAM: The Open Source CFD Toolbox
   \\    /   O peration     | Website:  https://openfoam.org
    \\  /    A nd           | Version:  11
     \\/     M anipulation  |
\*---------------------------------------------------------------------------*/
FoamFile
{
    format      ascii;
    class       volVectorField;
    location    "0.0000599923";
    object      U;
}
// * * * * * * * * * * * * * * * * * * * * * * * * * * * * * * * * * * * * * //

dimensions      [0 1 -1 0 0 0 0];

internalField   nonuniform List<vector> 
900
(
(-1.57709424287152 -2.73163443490964 646.325650820972)
(-1.14205546264449 -1.97818475978527 653.499866144619)
(-0.615720166563078 -1.06650241843045 659.996875460106)
(-0.773730274701023 -1.34016894640261 645.228251097276)
(-0.573447065882636 -0.99332494786315 652.841362596023)
(-0.279749229861206 -0.484584196176543 659.662646879555)
(-0.575868770293918 -0.997466353320276 643.458122601991)
(-0.486599660683963 -0.842889939217244 651.614864534403)
(-0.230306460793936 -0.398947962382024 659.052424720773)
(-3.15512950993268 -4.22182524639918e-07 646.326650270891)
(-2.28177210134309 -4.0999280170958e-06 653.49961280319)
(-1.23072328385191 -1.56512370425709e-06 659.994878880589)
(-1.54984396860309 -4.7679415699382e-07 645.229763428387)
(-1.14277375431046 -4.14695753752043e-06 652.840892462658)
(-0.559147264316934 -1.69770475346097e-06 659.660646306358)
(-1.15260667102641 -8.73388300782919e-07 643.458217368934)
(-0.971753313685493 -4.06044991871253e-06 651.615286962827)
(-0.460672589135784 -1.89307090721144e-06 659.052359229494)
(-1.5770940301553 2.73163219235766 646.325650810077)
(-1.14205668335659 1.97817871800328 653.499864023449)
(-0.615720413154303 1.0664992685203 659.996875645254)
(-0.773730380627503 1.34016688077002 645.228251253552)
(-0.57344791803923 0.993317725924974 652.84136032945)
(-0.279749453869859 0.484580867410102 659.662647023787)
(-0.575868824466833 0.997464383820537 643.458122850194)
(-0.486599976754834 0.842882241474381 651.614862678705)
(-0.230306580288966 0.398944172927622 659.052424551)
(1.57759232354006 2.73244314043885 646.326644377625)
(1.14094492980537 1.97609438444145 653.49962954736)
(0.615395915589824 1.06586151872294 659.994880099217)
(0.774950596103738 1.34222422398259 645.229754160027)
(0.57144720698311 0.98970007215155 652.840909531504)
(0.27960916964818 0.484259282795406 659.660648108668)
(0.576331265618174 0.998203083663904 643.458210418829)
(0.485935484777516 0.841594424538679 651.61529867808)
(0.230373591421296 0.398976623216819 659.052361798302)
(3.15424209598086 -1.11550886780524e-06 646.325645755734)
(2.28423517381097 -3.89192037523989e-06 653.499892033585)
(1.23150302774466 -1.74656077449083e-06 659.996865605858)
(1.54751454073868 -1.32754763006506e-06 645.22824506122)
(1.14701930240062 -4.15020986259581e-06 652.841383041465)
(0.559564138233793 -1.81286015895085e-06 659.662645714535)
(1.15179355498789 -1.19213931971833e-06 643.458117219261)
(0.973320786834188 -3.96503764436158e-06 651.614874889147)
(0.460687330430771 -1.96215370695466e-06 659.052428901043)
(1.57759299036309 -2.73244549190344 646.326643833036)
(1.14094377098967 -1.97610020461341 653.499631003536)
(0.615396230162276 -1.06586511073159 659.994880811904)
(0.774951485460297 -1.34222711282519 645.229753484807)
(0.571446862388987 -0.989707373805055 652.840911550767)
(0.279609353114625 -0.484262890383414 659.660648315513)
(0.576331445843666 -0.998205458954995 643.458210044312)
(0.48593546269222 -0.84160219250349 651.615300618252)
(0.230373670704392 -0.398980469282072 659.052361930774)
(-0.414826689054854 -0.718543854304015 664.212285876204)
(-0.23806443470403 -0.412190914585015 666.215770118645)
(-0.203172809506973 -0.351543948043038 664.716554637135)
(-0.195429029343026 -0.338527681561456 664.010698926915)
(-0.0934729925165412 -0.161748393386443 666.108848990031)
(-0.0807785785324579 -0.139544508610566 664.631887802606)
(-0.15972333686999 -0.276700691804254 663.612875752625)
(-0.0780161552781104 -0.135029349661093 665.877008303368)
(-0.0618187982778162 -0.106796254864806 664.429020954222)
(-0.833325612985531 -3.1618653923218e-06 664.210746611993)
(-0.478387270124628 5.5824531768818e-06 666.215800566532)
(-0.408086461709815 3.68273327850549e-06 664.71667131563)
(-0.393770294440961 -2.71032125410966e-06 664.009419559925)
(-0.190606534511788 6.01260160077884e-06 666.11140126594)
(-0.165103868479907 5.51448506356741e-06 664.634858992384)
(-0.320277821851583 -1.53022653939998e-06 663.612101112865)
(-0.157492575554906 7.26994816413035e-06 665.876971530353)
(-0.125353431308978 1.06376762139369e-05 664.429442025144)
(-0.414824866296209 0.71853861241134 664.212283925103)
(-0.238057500638065 0.412203578084487 666.215764169393)
(-0.20315531954811 0.351560682312267 664.716537413571)
(-0.195427646690463 0.338524284652993 664.01069752262)
(-0.0934672362424254 0.161763349498711 666.108843928023)
(-0.0807650965943969 0.139568560574454 664.631872987621)
(-0.159722894405131 0.276697662914487 663.612875358425)
(-0.0780136726061574 0.135044721252815 665.877006305524)
(-0.061813148938261 0.106822284263658 664.42901696984)
(0.416727951698617 0.721707175187795 664.210778315716)
(0.239142990887856 0.414235484323842 666.215892249028)
(0.203884729417198 0.353174190940558 664.716807041091)
(0.196936797590098 0.341024808576032 664.009441725735)
(0.0952333307798833 0.164983867842766 666.111469121741)
(0.0823820991386152 0.142755545783358 664.634961920257)
(0.160188894319635 0.27739051386392 663.612107951833)
(0.0787064279356164 0.136365754907385 665.877026394406)
(0.0625076072830594 0.108437148935179 664.429535386603)
(0.829771253623559 -9.9383540409012e-07 664.212285235615)
(0.476023136314281 1.23096312421989e-05 666.215802809958)
(0.405986940350747 2.35031634012393e-05 664.71676135338)
(0.390952958024925 -4.53563585303265e-07 664.010694925653)
(0.186820615755021 1.24394543834833e-05 666.108878286541)
(0.161115028369725 2.36956134067096e-05 664.632054239983)
(0.319547479631411 -1.09765869562725e-06 663.61287155424)
(0.155931737423921 9.82096500026833e-06 665.877016569528)
(0.123245774729396 1.7824576678977e-05 664.42906975469)
(0.416727573810245 -0.721712737839683 664.210782998092)
(0.23913953269889 -0.414218396736637 666.215905201684)
(0.20386774343355 -0.353137095820491 664.716825135947)
(0.196935233329912 -0.341027415341987 664.009445075597)
(0.0952279256508594 -0.164962532308358 666.111479470193)
(0.0823660437554342 -0.14271651000473 664.634975287956)
(0.16018840038118 -0.277392648853301 663.612108902592)
(0.078705382141631 -0.136349433274084 665.877033249807)
(0.0625030077327883 -0.108407994640832 664.429547010942)
(-0.190981902738279 -0.330374800975992 661.77914496241)
(-0.0832435547647417 -0.143712285336632 661.738690684003)
(-0.0585689841187643 -0.100996555080216 661.576946185531)
(-0.377841903247696 2.34111760242529e-05 661.779102032407)
(-0.165037117918008 2.96343929944356e-05 661.739354556204)
(-0.116791631274668 2.39255573162715e-05 661.577758702213)
(-0.190986544219025 0.330436339064736 661.779092675989)
(-0.0832487091135206 0.143781649998797 661.738651722824)
(-0.0585728773532758 0.101046499370583 661.5769252554)
(0.1887137430349 0.327001060185783 661.779308942888)
(0.0822472725210407 0.142724093089908 661.73954229499)
(0.0580603648036191 0.10099114536799 661.577915091037)
(0.381196382033381 2.72415615354752e-05 661.779807309855)
(0.165545118800013 2.96110101829891e-05 661.739196178467)
(0.116287969155612 2.2247205811927e-05 661.577183604668)
(0.188710477393473 -0.326950644661693 661.779320567222)
(0.0822525027460386 -0.142673688215598 661.739552390401)
(0.0580673492672081 -0.100953406497097 661.577931971901)
(-0.111305746239075 -0.192279319247894 657.59983406191)
(-0.0532401439569306 -0.0918470008276462 657.607998369882)
(-0.0409400110320002 -0.0702841817063516 657.542793671192)
(-0.236341447735201 2.51151994342737e-05 657.595272799875)
(-0.119072114267947 1.66821082081621e-05 657.608771241293)
(-0.0851679132874268 9.08490566877428e-05 657.542024579589)
(-0.111355130289514 0.1924137237871 657.599743299959)
(-0.0533191029346417 0.0920052919715564 657.607960466551)
(-0.040979564818583 0.0704868970719847 657.542789889768)
(0.117712268008418 0.205149202223815 657.595716501963)
(0.0589441221928772 0.103432115183254 657.609287242393)
(0.0418106614961017 0.0737158901440397 657.542214878344)
(0.220564796308175 2.42083816157756e-05 657.600599995745)
(0.104301191905721 1.06024974969693e-05 657.608315610577)
(0.0801741399914222 6.32710275675514e-05 657.54314141738)
(0.117705029555496 -0.20508597420308 657.595720928209)
(0.0589280883848067 -0.103368777559164 657.60929712489)
(0.041811430711866 -0.0735429690964647 657.542219582047)
(-0.145029426275422 -0.249558900081025 651.022754877645)
(-0.0773447138728434 -0.13250565949952 651.063931907906)
(-0.053741237235708 -0.0901094012170829 651.11248534889)
(-0.262372304393513 7.42214956620243e-05 651.0269307825)
(-0.131893440140251 7.97656833501441e-05 651.061342621109)
(-0.103091916987384 5.73273877519224e-05 651.10887095423)
(-0.145086132662874 0.249714996892079 651.022745712883)
(-0.0774181668881695 0.132684455773104 651.063955310034)
(-0.0537517054293295 0.0902150359637391 651.112489337248)
(0.129522463381588 0.225243352780427 651.027940160655)
(0.064026841303467 0.11174898356729 651.061795345079)
(0.0490112604267952 0.0875375519934419 651.108888776933)
(0.287636977884239 2.83847525199585e-05 651.022828720784)
(0.152399937278199 2.49790821105197e-05 651.063984455873)
(0.102458407275331 4.38959504307906e-05 651.112698847849)
(0.129579974513205 -0.225190064148582 651.027911772934)
(0.0640901388324799 -0.11169342021274 651.061802380826)
(0.049021734539771 -0.0874374681673305 651.108922490321)
(0.230493427988563 0.40077753322939 644.022192732178)
(0.152876456519663 0.266129908027638 643.985774177727)
(0.0746163615535152 0.131411167126791 644.0671933113)
(0.396072322367257 8.53817927196739e-05 644.01364898434)
(0.260499854554732 7.54747409724686e-05 643.992835914204)
(0.130190940424747 6.94697798278176e-05 644.060037773007)
(0.230470757832115 -0.400636247723675 644.022193156436)
(0.152853963606869 -0.265988536993737 643.985787683537)
(0.0745960808181798 -0.131285087581477 644.067178367583)
(-0.199339076455135 -0.344382979263886 644.013520118111)
(-0.131539462015488 -0.227143828621999 643.992246467665)
(-0.0669235339934722 -0.114160891924856 644.059712739403)
(-0.463187961857079 4.9953290096133e-05 644.021970086349)
(-0.307831997901687 5.15785322867629e-05 643.985620362357)
(-0.152589720951861 4.86359221338461e-05 644.067139597875)
(-0.199302728476368 0.344494700943806 644.013520883786)
(-0.131513641443625 0.227254629623454 643.992278058374)
(-0.066904281147268 0.114273768544238 644.059745108654)
(-0.638681186931275 -1.10522088059527 645.378327773986)
(-0.414200475112433 -0.716603086309048 645.455381683573)
(-0.199989633808266 -0.345227296812732 645.506199473911)
(-1.04290477375892 6.93721692921136e-05 645.348937939738)
(-0.649411937394375 6.73987686130793e-05 645.40346294392)
(-0.335689397215766 6.23869818477831e-05 645.492452528285)
(-0.638695714611947 1.10535846867428 645.378320350263)
(-0.414209275437845 0.716733294128272 645.455377533266)
(-0.199997000792594 0.345347697716694 645.506173306654)
(0.520842499484782 0.902803478728354 645.3486503312)
(0.324019912508947 0.561736519370415 645.402885986326)
(0.166961521876463 0.290125484011542 645.492002578414)
(1.27589384321311 5.56427346406955e-05 645.377941336091)
(0.82710166336626 5.73836393282581e-05 645.455039089146)
(0.398169560772779 5.75816461325444e-05 645.506072966632)
(0.520847055303108 -0.902670704731982 645.348661333759)
(0.324025561499596 -0.561609872578682 645.402908698427)
(0.166967366813646 -0.290003590318972 645.492016657592)
(1.54458969069573 2.67622464445204 662.861336022874)
(0.914641734956315 1.58514340575361 663.335870752047)
(0.454982246196557 0.789053499912503 663.242633674363)
(2.38565042209013 6.13408017318234e-05 662.793675901258)
(1.34529864369693 5.9902981073464e-05 663.299118721553)
(0.740833936291924 5.89362127800592e-05 663.243686083262)
(1.54458801455185 -2.67609503538718 662.861325518608)
(0.914639590769562 -1.58501648424297 663.335864868795)
(0.454982273524316 -0.788932993545024 663.242623890171)
(-1.19354109455838 -2.06641374932341 662.793690606338)
(-0.673316749344539 -1.16544104051334 663.299098596083)
(-0.37122149753542 -0.642075588136567 663.243514249)
(-3.0906703955126 6.34723166972128e-05 662.86129850941)
(-1.83078673586965 6.15844729070115e-05 663.335787552711)
(-0.911534631728283 6.2038446939841e-05 663.242590936168)
(-1.19354600767624 2.06654603553341 662.793695892914)
(-0.673323141674832 1.16557251091589 663.299105634068)
(-0.371224292787259 0.642201559522288 663.24351886879)
(0.0177049490139724 0.0315721127282816 686.505286376563)
(-0.0628008421021725 -0.107939232664905 686.098095992802)
(-0.0413290031357696 -0.0708241979334049 685.457477889053)
(0.16098916340237 5.769357709412e-05 686.36536264163)
(0.115960886813374 5.87081241359831e-05 686.000662646636)
(0.0154233494078191 5.96705962865181e-05 685.445044769643)
(0.0177044177144875 -0.0314568037769259 686.505283877684)
(-0.0628025661417903 0.108056397258394 686.09809577791)
(-0.0413312104429412 0.0709433664416789 685.457477717401)
(-0.0812909034334856 -0.139845940743548 686.365372036083)
(-0.0587279089465325 -0.100781623751462 686.000667656284)
(-0.00840756991278752 -0.0135968151594611 685.445076681333)
(-0.0369452463356739 5.74461746323573e-05 686.505348553354)
(0.12410126992537 5.73131174173045e-05 686.098157468014)
(0.0812511892091552 5.81786926463454e-05 685.457497400968)
(-0.0812909819039288 0.139962120346079 686.365369766353)
(-0.0587274329052564 0.100898713712991 686.000666606938)
(-0.00840583751012425 0.0137140668594203 685.445077024182)
(0.750543565928093 1.30076978854581 743.43774096769)
(0.961144675986122 1.66550439204493 742.237952718612)
(0.476292035021547 0.825736995987997 740.440669617519)
(1.13950996690361 4.97203162538899e-05 743.062797910707)
(1.20488087285972 5.09612402441863e-05 741.777444778689)
(0.617172724481168 5.1518177555003e-05 740.483409084063)
(0.750541517345132 -1.30066984061743 743.437742468515)
(0.961142246377818 -1.66540312465084 742.237956141261)
(0.476290080582694 -0.825634536549917 740.440673635879)
(-0.570461114831927 -0.987190443893437 743.062967529624)
(-0.603103147699406 -1.04372436217603 741.777582949129)
(-0.309242860985931 -0.534755095309061 740.483484842339)
(-1.50246470388115 4.84034689065534e-05 743.43779180539)
(-1.92363169633611 4.87300603043099e-05 742.237985654237)
(-0.953902964211357 4.98456716739608e-05 740.440721145294)
(-0.570459406766341 0.987287334933743 743.062966818459)
(-0.603101031718661 1.04382299738605 741.77758211271)
(-0.309241191007341 0.534855792424247 740.483482559367)
(-1.66586969205677 -2.88541510749052 626.522369775779)
(-0.741477811689598 -1.28432168804265 625.069217268138)
(-0.542389074645887 -0.939490989437554 623.159679901777)
(-3.33174713741658 -1.51106680113863e-06 626.522474007172)
(-1.48284700191955 -1.5746151555779e-06 625.069317204489)
(-1.08477016408473 -1.63138239913777e-06 623.1597118168)
(-1.66586970781307 2.88541218833738 626.522369466403)
(-0.741477816545191 1.28431863041404 625.069217083506)
(-0.542389086912765 0.939487669204458 623.159679853832)
(1.66591075931983 2.8853966406674 626.522470384317)
(0.741461690776101 1.28420419998139 625.069312041976)
(0.542423554308888 0.939459590626008 623.159708742803)
(3.33181407887166 -1.49787366534835e-06 626.522367590153)
(1.48303177729928 -1.56152246129062e-06 625.069214051459)
(1.08485498512949 -1.69197775173495e-06 623.159677310837)
(1.66591054471041 -2.88539934000753 626.522470321375)
(0.741461663567894 -1.28420735804691 625.069311929351)
(0.542423583935818 -0.939462946775959 623.159708811272)
(-12.8503059933819 -22.2574378751057 19.292672563519)
(1.56546112575407 2.71113482052064 51.1945568842752)
(54.9707448397448 95.2118423810176 106.422068599845)
(99.846571937105 172.939155953039 87.7064657264927)
(93.7882786062761 162.446052914623 60.6255984544763)
(57.6394932919704 99.8345018950156 38.9997665980584)
(15.1933608517446 26.3156181025662 16.5750731343569)
(1.21050802710599 2.09666143187638 2.02159980987686)
(0.0202997522998208 0.0351604273927091 0.0444880848782445)
(4.55880182384939e-05 7.89608206474784e-05 0.000124999850364191)
(8.35301577084176e-10 1.43554669365996e-09 1.90289587969377e-08)
(-4.2095652745346e-09 -7.30087069876741e-09 -1.94918360714183e-08)
(-1.85852774210252e-09 -3.22483196471787e-09 -1.03415958010829e-08)
(-2.69665457504554e-10 -4.71299726584976e-10 -1.46818649653521e-09)
(-4.22606160159175e-12 -1.05868750423463e-11 -2.86010024862925e-11)
(2.45741640020853 4.25635608575585 59.9447508294943)
(42.7725228343383 74.0841941858337 218.844941495872)
(78.7552374725766 136.407074973171 301.600632127396)
(121.832460128563 211.019961970735 209.823110586235)
(92.6419670515899 160.461138463973 133.065149431349)
(60.0336936648681 103.981760936595 82.5495602543847)
(19.4825883583801 33.7448390236873 37.923994907388)
(2.01837286238777 3.49589696362381 5.46879825545665)
(0.0399548104828732 0.0692025161485607 0.140099627023732)
(0.000104943359189379 0.000181768217309217 0.000444231638641487)
(2.87561297320367e-08 4.97975861582322e-08 1.38609092115865e-07)
(-7.20256857540584e-10 -1.25720892837137e-09 -1.71631087621241e-08)
(-7.17221743885571e-10 -1.24944952034852e-09 -9.66205595326118e-09)
(-1.68671078126543e-10 -2.99579530991689e-10 -1.81748892916807e-09)
(-6.63028980413731e-12 -1.49083264140435e-11 -5.12265529543454e-11)
(52.1923574600383 90.4013563549913 328.536053320944)
(68.0763499242776 117.911976141372 646.68065570026)
(38.1995131548524 66.1617885366736 708.120892280359)
(79.0809148432745 136.971079913365 465.779794951899)
(87.5426238118718 151.62858399644 248.036199843413)
(63.1774572781006 109.426975396123 147.042525284136)
(25.5936614862638 44.329662967064 70.8679412120609)
(3.48570631073075 6.03740832826098 12.3657843561295)
(0.0872832420358 0.151177167198547 0.373013853076644)
(0.000265338005034746 0.000459578252160188 0.00133958254985783)
(7.12941645982882e-08 1.23479110300955e-07 4.93579096141575e-07)
(-7.98510225681249e-10 -1.38954473391921e-09 -1.53566386929739e-08)
(-7.2580244775104e-10 -1.26297810512203e-09 -9.66031367804942e-09)
(-2.1314369222997e-10 -3.75649232614798e-10 -2.16584518454105e-09)
(-9.93206098013441e-12 -2.20251488958673e-11 -7.56238206916568e-11)
(373.336740246594 646.638356217278 995.322606688507)
(244.474358108774 423.442010171966 1100.27583042048)
(101.150650457564 175.198904123621 1141.79050498233)
(69.9409451352934 121.142110869382 846.814779002408)
(84.8506014356586 146.966249294655 402.860478182095)
(60.2135513966154 104.293432047821 228.181542400763)
(28.520368034319 49.3989790272668 108.614136122799)
(4.66771804279576 8.0847554423342 22.2308257084414)
(0.139982858566582 0.242457423295661 0.796720312837119)
(0.000505439473231838 0.000875446696948162 0.0033072890300958)
(1.54311639191184e-07 2.6727089522226e-07 1.32928704467876e-06)
(-4.92007231275535e-10 -8.57052090397098e-10 -1.45532830523856e-08)
(-5.91942975061654e-10 -1.02996425768269e-09 -9.93883754452083e-09)
(-1.92184588420404e-10 -3.39066124078761e-10 -2.54188417205118e-09)
(-9.7316106712859e-12 -2.32844311968255e-11 -1.05726229644783e-10)
(-13.4808224287672 3.04608883263091e-07 15.3480438375165)
(38.0629742376671 -5.06579055135077e-06 59.9002387330076)
(153.413429113039 -9.22024576785302e-06 96.5216292107536)
(239.897344650771 -4.55024288091358e-06 89.3842786492167)
(216.705765698848 -5.16746871450496e-07 78.2434884124029)
(143.078192013122 -1.61511040304193e-06 56.7538122492975)
(39.7796837567154 -1.51756799078679e-06 23.0127452270708)
(2.90657483029193 -6.42901761105998e-09 2.27898468980241)
(0.0373304566491517 7.26491064542771e-09 0.035037053175885)
(5.49923744919993e-05 1.37822361005212e-11 5.7361142874458e-05)
(-6.91102964912229e-09 2.38186351112624e-13 -8.79453408112041e-09)
(-8.61985432084614e-09 1.79587413954792e-13 -2.10216107033425e-08)
(-3.67964680003432e-09 1.20546670718602e-14 -1.02132843549094e-08)
(-5.0540767550069e-10 -9.6618407071233e-13 -1.35995154391549e-09)
(-9.17334353897794e-12 7.55388600346126e-14 -2.75724418435442e-11)
(41.7371030051773 -1.95429008199445e-06 75.2347154075666)
(128.231432140444 -1.84478829946005e-06 233.369778445296)
(170.388592426879 -1.03499432980105e-05 322.696301582313)
(201.862238179587 -1.16883937168969e-05 222.61883153596)
(168.466237042557 -1.55762800421119e-06 142.663901289814)
(118.540999160549 4.33797182642354e-06 94.4463922105711)
(44.4827920782379 1.70938343124149e-07 47.7909579393992)
(5.1132087044632 -1.36411013681616e-07 7.2024813002519)
(0.100154308300375 -5.5211573887609e-09 0.166315742133733)
(0.000222288336488888 9.41398972199412e-11 0.000398163449517582)
(4.53855468770157e-08 3.00783513369141e-13 8.3461799462707e-08)
(-9.42905437494545e-10 3.1644917763193e-13 -1.80191715070176e-08)
(-1.4797115308955e-09 -3.54573981753621e-14 -9.68934158517332e-09)
(-3.3710222259961e-10 -8.59874788776442e-13 -1.72690835944424e-09)
(-1.19347787397487e-11 4.63601272515857e-14 -4.69146426970618e-11)
(146.387884828829 1.26984830327015e-05 368.45382022205)
(148.256827886787 5.29266098237286e-06 647.37982523705)
(97.1051370330345 -3.59520988030241e-06 682.94324745375)
(171.410236707576 -4.54089217315252e-06 449.060896193716)
(165.608244618453 6.28516194950312e-06 265.172689835152)
(115.420061335544 5.5306171128702e-06 161.37972021041)
(48.5120533210812 2.14973443095464e-06 81.7922624338368)
(7.14563326156112 1.14946856176591e-07 14.9873105300784)
(0.184026139501323 -4.56150228712931e-09 0.441303044707925)
(0.000532404096348882 1.80647858276224e-10 0.00138805926663316)
(1.24677911273883e-07 2.8151362153362e-13 4.1313639104708e-07)
(-1.43154032484503e-09 2.55954170894164e-13 -1.56728341808651e-08)
(-1.53301836846556e-09 4.02323991674614e-14 -9.68250660640856e-09)
(-4.60333012267812e-10 -1.01327257727194e-12 -2.10597835074862e-09)
(-2.21112722375324e-11 3.24646386256424e-14 -7.06841735164849e-11)
(578.341604034021 2.64342538010402e-05 952.234995019145)
(430.721497280459 2.50595921752626e-05 1104.17942630347)
(66.0471900352167 1.45596257780435e-05 1064.66546351147)
(11.4578660521626 2.08296966640534e-05 716.602008683519)
(95.6572199088262 8.97785861111987e-06 400.302095817228)
(85.5511866487747 4.01505009870609e-06 242.974832424865)
(46.0967884776459 2.63754073534078e-06 119.044770650841)
(8.10296686048094 4.26268242406204e-07 24.8133403137672)
(0.244679414085847 1.01874599365524e-08 0.857589694184792)
(0.000891221585798791 3.0831816573164e-10 0.00322084151461724)
(2.69522411534501e-07 1.85744398498621e-13 1.12649106746656e-06)
(-8.59802642862476e-10 1.15178246672009e-13 -1.47734791961405e-08)
(-1.26615106860634e-09 -1.09545715898024e-13 -9.99170773351025e-09)
(-4.35565378885764e-10 -8.90286777705644e-13 -2.50985331453438e-09)
(-2.27429116325142e-11 2.44314255110803e-13 -1.01514151228479e-10)
(-12.8503041350259 22.2574321789556 19.2926627236389)
(1.56545244506411 -2.71113110129385 51.1945537459632)
(54.9707304326306 -95.2118274538192 106.42207107248)
(99.8465419381304 -172.939110612942 87.7064555463301)
(93.7882547608283 -162.44601272093 60.6255784484594)
(57.6394858125676 -99.834490378137 38.9997553823353)
(15.1933630649656 -26.3156238590513 16.5750758176926)
(1.21050915068217 -2.09666338474597 2.02160202320799)
(0.0202998007188988 -0.0351605040417039 0.0444881796744145)
(4.55881577702405e-05 -7.89610605196385e-05 0.000125000208737381)
(8.3534910954367e-10 -1.43568167068353e-09 1.9028906779406e-08)
(-4.2096929332339e-09 7.30060592596508e-09 -1.94914287917373e-08)
(-1.85877067532555e-09 3.22472528082143e-09 -1.03402323716046e-08)
(-2.71689975095691e-10 4.7166946644001e-10 -1.46979250286562e-09)
(-4.85797856579439e-12 1.04753332084787e-11 -2.86775298317443e-11)
(2.45740449029987 -4.25633767554992 59.9447275859793)
(42.7725114843052 -74.0841760194571 218.844904760991)
(78.7552143914336 -136.407070242559 301.600618558841)
(121.832461270264 -211.019968630389 209.823097493922)
(92.6419797161275 -160.461144187313 133.06512749441)
(60.033694818303 -103.981752328939 82.5495436263681)
(19.4825838667288 -33.7448313462176 37.9239910699027)
(2.01837224115573 -3.4958968082574 5.46880056840619)
(0.0399548162939445 -0.0692025672168601 0.140099825339851)
(0.00010494364519621 -0.000181768680673905 0.000444232907836815)
(2.87558906472777e-08 -4.9797409199157e-08 1.38609380926151e-07)
(-7.20807583877331e-10 1.25745341114008e-09 -1.71626687329356e-08)
(-7.17328494097844e-10 1.2492334375649e-09 -9.66099719896532e-09)
(-1.69377614548719e-10 2.99597532036591e-10 -1.81865776470033e-09)
(-7.35464783096084e-12 1.4723041040219e-11 -5.13714669195068e-11)
(52.1923612990412 -90.4013138148439 328.535999363451)
(68.0763417587498 -117.911952078782 646.680593902356)
(38.19948484063 -66.1618024230731 708.120873764922)
(79.0809213086079 -136.971130575309 465.779798500617)
(87.5426416442053 -151.628608057661 248.036170969376)
(63.1774671458596 -109.426980854704 147.042505160258)
(25.5936609348156 -44.3296579280934 70.8679322075784)
(3.48570498287211 -6.03740647398262 12.365785209332)
(0.0872831809808751 -0.151177122581128 0.373014077879631)
(0.000265338125054948 -0.000459578482330946 0.00133958453210205)
(7.12939623506096e-08 -1.234789860771e-07 4.93580110874612e-07)
(-7.99116996406521e-10 1.38979082316172e-09 -1.53565864729432e-08)
(-7.25905889675911e-10 1.26272235832705e-09 -9.65978676406372e-09)
(-2.13599267435561e-10 3.7534975827863e-10 -2.1668235344351e-09)
(-1.05006032937144e-11 2.1845179872802e-11 -7.57943002464323e-11)
(373.33675804692 -646.638374258332 995.322634657202)
(244.474331425691 -423.441959291321 1100.27576257015)
(101.150658507555 -175.198876395911 1141.79047477005)
(69.9409503137574 -121.142089586356 846.814745477106)
(84.8506062617871 -146.966237518126 402.860440082662)
(60.2135610371121 -104.293434121923 228.181524098174)
(28.5203725044572 -49.3989791613373 108.614128374461)
(4.66771763909898 -8.08475380385115 22.2308259551869)
(0.139982792416964 -0.242457309951215 0.796720442814641)
(0.00050543928680496 -0.000875446381026222 0.00330729062339154)
(1.54311306362779e-07 -2.67270705299966e-07 1.32928792156778e-06)
(-4.92533301649191e-10 8.57122903179477e-10 -1.45531999462913e-08)
(-5.92131251166855e-10 1.02983904908893e-09 -9.93848362908678e-09)
(-1.92132347901759e-10 3.38332342363013e-10 -2.54236065851843e-09)
(-1.07790129792638e-11 2.37379554997944e-11 -1.05841801714072e-10)
(6.74034111482092 11.6746867822463 15.3479917155451)
(-19.0316683354879 -32.9641427723577 59.9012853110582)
(-76.7065224959093 -132.860161631633 96.5232659345776)
(-119.947997163222 -207.756305657588 89.384554235423)
(-108.35222377314 -187.671586788982 78.2431007716135)
(-71.5387106208347 -123.908778021639 56.7534662015336)
(-19.8898549580833 -34.4503318383179 23.0127503526863)
(-1.45332019108425 -2.51722469159605 2.2790410692471)
(-0.018666374801899 -0.0323306515471645 0.0350394757013859)
(-2.74989367310576e-05 -4.76286828159853e-05 5.73679238058981e-05)
(3.45773524550631e-09 5.99018611975396e-09 -8.79421416512538e-09)
(4.30933917691685e-09 7.46739964601549e-09 -2.10236837252986e-08)
(1.83969971989238e-09 3.19485739304311e-09 -1.02185438692668e-08)
(2.51187983639675e-10 4.46719626416166e-10 -1.3521846203146e-09)
(4.20228750001609e-12 9.44172049807747e-12 -2.47948878588114e-11)
(-20.8683335408028 -36.1451584348519 75.2345151545761)
(-64.1154513783911 -111.051346419518 233.370391822115)
(-85.1945174783328 -147.56166278182 322.698102649658)
(-100.931600263208 -174.819337598258 222.620526976003)
(-84.2330613760833 -145.896036177442 142.663729781745)
(-59.2703155093104 -102.658927747821 94.4458731008691)
(-22.2411602849952 -38.5228068858328 47.7906202841161)
(-2.55658792443913 -4.42814833831228 7.20249979835764)
(-0.050078058159032 -0.0867380707332612 0.166320731085867)
(-0.000111150759606627 -0.000192512922948991 0.000398193248779908)
(-2.26995799109662e-08 -3.93107544519587e-08 8.34675695281883e-08)
(4.68583123364739e-10 8.19059426782907e-10 -1.80215932799508e-08)
(7.40328464308617e-10 1.28786759267741e-09 -9.69228392031453e-09)
(1.73621000977164e-10 3.04661127382086e-10 -1.72466560424179e-09)
(6.71572143941784e-12 1.33391664242299e-11 -4.51519870523758e-11)
(-73.1945047118139 -126.776462917511 368.454529966651)
(-74.1283204841878 -128.394020461796 647.379878089279)
(-48.5518445859189 -84.0944658903072 682.944086516688)
(-85.705699212865 -148.446801755109 449.061464756531)
(-82.8047294900886 -143.421610580328 265.172214459942)
(-57.7103031626129 -99.9568379354481 161.379116052713)
(-24.2559355082736 -42.0123785095084 81.7918360256386)
(-3.57277218362765 -6.18821538381277 14.9872333928693)
(-0.092012155301685 -0.159369984750983 0.441305509782737)
(-0.000266205148570314 -0.000461069764678929 0.0013880998875933)
(-6.2346170511455e-08 -1.07976359855233e-07 4.13157028686265e-07)
(7.1430106977526e-10 1.24268777866184e-09 -1.567272539724e-08)
(7.66309998723916e-10 1.33019920923534e-09 -9.68527118537542e-09)
(2.3177960493855e-10 4.03940450055849e-10 -2.10827013195204e-09)
(1.0672417073803e-11 2.14086033107191e-11 -6.97899403495228e-11)
(-289.171915108802 -500.859964242677 952.236899159368)
(-215.361217811099 -373.015954601545 1104.17941060898)
(-33.0240391919529 -57.1988178974197 1064.66611377826)
(-5.72954192355556 -9.92268407422466 716.601063578558)
(-47.8288133913239 -82.8413743410445 400.301508816653)
(-42.7758090961407 -74.0896263053931 242.974409084034)
(-23.0484598225971 -39.920942983524 119.044478789358)
(-4.0514585142807 -7.01730533358779 24.813233408649)
(-0.122337798999916 -0.211894589426429 0.857586222213665)
(-0.000445606481110735 -0.000771794709873422 0.00322085419073808)
(-1.3476286555616e-07 -2.33404262901885e-07 1.12651031277829e-06)