/*--------------------------------*- C++ -*----------------------------------*\
  =========                 |
  \\      /  F ield         | OpenFOAM: The Open Source CFD Toolbox
   \\    /   O peration     | Website:  https://openfoam.org
    \\  /    A nd           | Version:  11
     \\/     M anipulation  |
\*---------------------------------------------------------------------------*/
FoamFile
{
    format      ascii;
    class       volScalarField;
    location    "0.0000700081";
    object      Ma;
}
// * * * * * * * * * * * * * * * * * * * * * * * * * * * * * * * * * * * * * //

dimensions      [0 0 0 0 0 0 0];

internalField   nonuniform List<scalar> 
900
(
0.785968362225327
0.792096772477723
0.795995384533386
0.785433269276462
0.791860385588359
0.7958484343629
0.784297835406603
0.791154159112586
0.795436402051799
0.785968360632404
0.792096946224959
0.795995238955831
0.785433137887733
0.791860502356739
0.795848453521138
0.784297914550026
0.791154192904046
0.795436369808215
0.78596836191127
0.792096773950927
0.795995378833282
0.785433269591592
0.791860385944204
0.795848429995586
0.784297835654186
0.791154159708348
0.795436399946782
0.785968345584216
0.79209695305505
0.79599525455427
0.785433127381822
0.791860514203418
0.795848463114655
0.784297905309864
0.791154206272463
0.795436379498034
0.785968339520037
0.792096751550436
0.795995433019706
0.785433249899868
0.791860373809174
0.795848471577258
0.784297827844606
0.791154157047249
0.795436415243376
0.7859683452811
0.792096952096835
0.795995257503037
0.785433126773431
0.791860514630711
0.795848465795442
0.784297904972309
0.791154206177051
0.795436381222092
0.796968791399911
0.796317325557534
0.792091890886821
0.796933383934448
0.796329135474667
0.792120408891891
0.796679026066801
0.796218914821169
0.792145182861377
0.796968362994869
0.796318845837228
0.792089046547301
0.79693382250233
0.79632893118819
0.792119459550667
0.79667873486418
0.79621992768142
0.792146055960221
0.79696877932258
0.796317330626228
0.79209181315499
0.796933377610431
0.796329137038724
0.792120373876657
0.796679021713309
0.796218917582599
0.792145171920896
0.796968381837352
0.796318892734688
0.792089228130801
0.79693386461182
0.7963289391644
0.792119659473134
0.796678737196836
0.796219995233185
0.792146079749275
0.796968916967237
0.79631735165139
0.79209248354086
0.79693345037575
0.796329203171519
0.792120699039578
0.796679070434527
0.796218897095568
0.792145159712483
0.796968381906798
0.796318877372086
0.792089251542386
0.796933867661929
0.796328928944194
0.792119686454276
0.796678737513977
0.796219997258544
0.792146087674487
0.783663485772463
0.783683799371619
0.78371304574834
0.783661266788733
0.783683212797652
0.783713198417519
0.783663441234254
0.783683791956696
0.783713051592901
0.783661396648092
0.78368335501575
0.783713258530621
0.783663714552269
0.783683820260302
0.78371303987103
0.783661408318392
0.783683373406767
0.783713271015653
0.778665715947173
0.778680851276686
0.778708405025204
0.778660010752708
0.778679105762094
0.778709137242755
0.778665642796471
0.778680818844466
0.778708404815468
0.778660218550631
0.77867926445468
0.778709190473647
0.778666191241714
0.778681093516165
0.778708450123131
0.778660238156371
0.778679282339555
0.778709195765287
0.778486353763579
0.778499423650266
0.778518925077961
0.778484041020933
0.778498298890312
0.778518620599254
0.778486360218529
0.778499432203033
0.778518929576261
0.778484137070789
0.778498352808043
0.778518621528395
0.778486373840437
0.778499416128673
0.778518919236078
0.778484142755191
0.778498355525089
0.778518619847809
0.790620622403365
0.790608017650356
0.790618756930747
0.79060855315456
0.790607295381031
0.790616878415905
0.79062063032275
0.790608028650934
0.790618762657019
0.790608601419837
0.790607317226301
0.790616868071528
0.790620584258977
0.790607966345389
0.790618741992718
0.790608606434582
0.790607317005056
0.7906168631651
0.812867796656631
0.812817288764508
0.812729005774314
0.812755959951905
0.812736700079155
0.812724858514011
0.812867797633509
0.812817290030678
0.812729006919345
0.812756064794623
0.812736772325942
0.812724865043934
0.812867886221284
0.812817342655268
0.812729029975017
0.812756072722729
0.812736776552652
0.812724860011623
0.84857450701541
0.848860606064313
0.84872575254218
0.848352975909648
0.848677423409874
0.848776464601763
0.848574500538888
0.84886059940916
0.848725749614225
0.848352953051323
0.848677419573216
0.848776492679016
0.848574558708463
0.848860651872546
0.848725776345927
0.84835296090586
0.848677425754391
0.848776493645092
0.897567281314056
0.897547547589261
0.89713752717933
0.897652491296355
0.897460706328223
0.897078841593241
0.897567280235423
0.897547545346545
0.897137527236163
0.897652457852151
0.897460692928147
0.897078863623407
0.897567301749851
0.897547579473507
0.897137544082939
0.897652454912306
0.897460690490865
0.897078863374859
0.986700936980306
0.985117859645512
0.982429473493342
0.986019247273501
0.984325617061243
0.982290851673185
0.986700936692042
0.985117859965861
0.982429477275635
0.986019262155286
0.984325637820665
0.98229090015845
0.986700982600734
0.985117898924991
0.982429487271579
0.986019261297469
0.984325636134844
0.982290899392546
0.766816305647637
0.766039673066073
0.76486141758808
0.766816400603395
0.766039865903053
0.764861504230006
0.766816305883821
0.766039673377571
0.764861417743422
0.766816394344641
0.766039858820109
0.764861499787939
0.766816298866481
0.766039667782974
0.764861414708945
0.766816394167772
0.76603985855835
0.764861499649828
0.128760732457916
0.137599028138093
0.330908405876546
0.421802164294578
0.432970763523539
0.703628349457589
0.730106129283619
0.529000498427501
0.198300807846472
0.0241491718259039
0.000669758083898825
3.05577574010998e-06
1.62990731944575e-09
3.21428372841508e-11
1.64309833744477e-11
0.0947413159292226
0.565986481174834
0.800122444352974
0.862868608965043
0.718281107098181
0.597180314045926
0.677101354037028
0.505442020827223
0.25680821305796
0.0517701735158957
0.00216542604789109
1.36598899172105e-05
9.81620668912165e-09
2.45618166544846e-11
1.22132191714443e-11
0.681517369169077
1.57054198456011
1.51104774420572
1.41668847346435
1.32217806334789
0.886150062222658
0.765095898621664
0.598757133289885
0.348335829961739
0.0968150166899563
0.00533457543849068
4.10709833028333e-05
3.48822102447348e-08
1.2840702330819e-11
1.04370729473974e-11
2.43473887684869
2.68170893714465
2.26602949369843
2.05497482207299
1.94890825001613
1.28169174104196
0.865160892752022
0.705550186411284
0.444592938666351
0.148148695517181
0.0103923644665338
9.6282674009809e-05
9.43643108262079e-08
7.12262480231315e-12
9.67589658707033e-12
0.101447125867517
0.297876987795338
0.466388811794838
0.553951700426889
0.492908139308845
0.684703233190118
0.669080915400992
0.484001735329232
0.214629239388189
0.0382265027079456
0.00173629814012408
1.26590923516279e-05
9.83399719437464e-09
3.0020232348568e-11
1.64323364999919e-11
0.191322647334953
0.649355670005604
0.84378979231275
0.820309360170858
0.63631699911678
0.590092703781869
0.658781708661864
0.458711087754268
0.214275225010703
0.0543219107520999
0.00385335247534697
4.00298777391367e-05
4.06549678406784e-08
1.69649399338013e-11
1.21256250794237e-11
0.78935345530058
1.26031286105471
1.23396095932842
1.2698724014617
1.16557199172927
0.8936363856891
0.807545702030264
0.594378171654976
0.314265830517458
0.0930195954689051
0.0073760180043794
8.4671307510234e-05
9.55109684043523e-08
2.51289522044363e-12
1.03185810040533e-11
1.85624755990084
2.04657658779106
1.79646350075217
1.84252255892267
1.7964208612675
1.22851528059242
0.901865446296152
0.710978827848604
0.42244734192583
0.139626993536456
0.012107261697112
0.00014815919062088
1.75901706954676e-07
2.58595796696725e-11
9.51017566516292e-12
0.12876077637614
0.137598975265455
0.330908336132674
0.421802071085706
0.432970665726193
0.703628319878411
0.730106107121439
0.529000464133
0.198300777130914
0.0241491662656895
0.000669758045716106
3.05577677002331e-06
1.6299109156488e-09
3.21398096650146e-11
1.64290683650076e-11
0.0947412755021093
0.565986302354818
0.800122249380592
0.862868430222849
0.718280935207972
0.59718025682178
0.67710138032766
0.505442043445374
0.256808206385875
0.0517701658814409
0.00216542568654867
1.36598900506434e-05
9.81620913047976e-09
2.45600133962923e-11
1.22120571371795e-11
0.681517116942011
1.57054162011028
1.51104741469676
1.41668824940368
1.32217785032517
0.886149889077191
0.765095841264188
0.598757130731376
0.348335830808301
0.0968150091485215
0.00533457468893953
4.10709811529975e-05
3.48822149657914e-08
1.28395606530401e-11
1.0435804225671e-11
2.43473863053182
2.68170853818106
2.2660291603573
2.05497465448838
1.9489080492223
1.28169163534163
0.865160881363991
0.705550201892331
0.444592942794753
0.14814868901138
0.0103923634031699
9.62826689620926e-05
9.43643156148746e-08
7.12340527723249e-12
9.67500610074015e-12
0.101447178718057
0.297877901924631
0.466390366184851
0.553952727943
0.492908351134496
0.684703635881465
0.669082101746149
0.484002043764003
0.21462816045813
0.0382260638243539
0.00173627212157246
1.26588681503871e-05
9.83378397068583e-09
3.00396622611763e-11
1.64329285441143e-11
0.191323078776351
0.649357113378847
0.843791437186091
0.820310470983172
0.636316748047124
0.590091837791293
0.658782001741846
0.458711830253018
0.214275651726356
0.0543217791359791
0.00385331557780249
4.00292888005104e-05
4.06542438901671e-08
1.69748144111356e-11
1.21198545639658e-11
0.78935406668671
1.26031531235213
1.233962972603
1.26987379001137
1.16557210248137
0.893636262648973
0.807545428053726
0.594378832692794
0.314266401705062
0.0930195074602214
0.00737597441972122
8.46705374763887e-05
9.55099561141261e-08
2.50576255426351e-12
1.03194632744705e-11
1.85624711481608
2.04658057595491
1.7964664774823
1.84252353430109
1.79642128624463
1.22851557415863
0.901864661683161
0.710979255445454
0.422447904808557
0.13962701758195
0.0121072217372261
0.000148158428536366
1.75900770507415e-07
2.58567036501536e-11
9.51092622176358e-12
0.128760466096415
0.137599818822741
0.330909008506601
0.42180255853496
0.432971525655391
0.70362856873997
0.730106191495186
0.529001097568391
0.198301586733983
0.0241493367933268
0.000669760023329098
3.05575255902897e-06
1.62988531707221e-09
3.21259682346139e-11
1.64245159804835e-11
0.0947418381364355
0.565988485816959
0.800124250227511
0.862870322783653
0.718284003651146
0.597181511708921
0.677100453740501
0.505441163115014
0.256808271058473
0.0517703772380694
0.00216543727522769
1.36599023942251e-05
9.81614385669373e-09
2.45501880706057e-11
1.22158673138037e-11
0.681520666341806
1.5705462654905
1.51105140882246
1.41669109621935
1.32218124090025
0.886152733945266
0.765097003699412
0.598756933796087
0.348335676754047
0.0968152066737018
0.00533459766668496
4.10710754057577e-05
3.4882133697019e-08
1.28307358293049e-11
1.0436084192906e-11
2.43474300499472
2.68171410489471
2.26603365869821
2.05497719128224
1.94891113464863
1.28169297692728
0.865160987046349
0.705549617284755
0.444592704216534
0.148148842716922
0.0103923944084766
9.62828566569328e-05
9.43642254682088e-08
7.13498903205248e-12
9.67627838127588e-12
0.10144717608098
0.297878020299993
0.46639049640012
0.553952842038229
0.492908420200982
0.684703675013742
0.669082162832779
0.484002065628274
0.214628126391965
0.0382260486038785
0.00173627118858743
1.26588599873454e-05
9.83377879602669e-09
3.00387416043625e-11
1.64333243466334e-11
0.191323126466936
0.649357251210664
0.843791591065351
0.820310561609931
0.63631677520952
0.59009182119019
0.658782019273356
0.458711862502103
0.214275669148496
0.0543217746634644
0.00385331425268604
4.00292674207689e-05
4.06542211962714e-08
1.69739840518681e-11
1.21201238987616e-11
0.789354154816378
1.26031552430611
1.23396314878191
1.26987392217567
1.16557216556281
0.893636294486106
0.807545428018601
0.594378861298484
0.314266424379281
0.0930195050604436
0.00737597289246519
8.46705094460816e-05
9.55099235564021e-08
2.50779345337461e-12
1.03187444800136e-11
1.85624709248595
2.04658089458013
1.79646671271026
1.84252362732668
1.79642136660821
1.22851563543119
0.901864640786482
0.710979271815967
0.422447926284872
0.139627019338296
0.0121072204017246
0.000148158401187577
1.75900740697877e-07
2.58582162444859e-11
9.5105800761798e-12
1.69655721108516
2.74259658342656
3.01750212980386
2.62475447695208
2.36418698876126
1.57622857540785
1.05422283264638
0.823975562846439
0.528257627847078
0.188118756718969
0.0156990613138108
0.00016918986500415
1.85944832195888e-07
3.16874219823371e-11
9.23483827011428e-12
1.53111491008668
2.43173373226397
3.06544938811274
2.91670416510717
2.50281918164646
1.70633867466051
1.15316170673935
0.883575567996242
0.589673028546332
0.215318826289372
0.0196943493951891
0.000237474862714047
2.85660263167002e-07
5.79010176722515e-11
8.94228257790854e-12
1.42274093588745
2.19312097904883
3.00913583733736
3.04007900094886
2.58915681150953
1.7609850408752
1.22424669355482
0.928248982150738
0.621684557091795
0.230580465160965
0.0223529174876662
0.000288877217070793
3.67468786685173e-07
7.88878172846051e-11
8.6855638959961e-12
1.57392667082593
2.30453436701448
2.59307876482968
2.41437479753762
2.32290434627197
1.5137189336418
1.1192517707391
0.859106726497357
0.518227271707971
0.179651079747828
0.016466770920215
0.000210184604005086
2.59420530917537e-07
4.84618238924456e-11
9.12402751733623e-12
1.46312507603922
2.22682548226937
2.84910224755896
2.74083262613999
2.49966062409229
1.70948122990761
1.17348381979977
0.889830298268552
0.581283995346455
0.210281250473968
0.0200371138879784
0.000256201701626042
3.2047617566181e-07
6.57299580019203e-11
8.89195785293663e-12
1.41298461326098
2.15616711048874
3.01458983514497
2.98954808259018
2.58752545998896
1.76808752891228
1.24327243471917
0.944718322068597
0.632251124424526
0.230918650151074
0.0221980040346594
0.000286566665468787
3.64712044042404e-07
7.83887833233883e-11
8.6835684309385e-12
1.69655723854485
2.74259668643589
3.0175019029033
2.62475430184567
2.36418692439662
1.5762285514612
1.05422282129501
0.823975562510659
0.528257628706177
0.188118753682924
0.0156990604863636
0.00016918986026276
1.85944837393271e-07
3.16874466650876e-11
9.23453941769132e-12
1.53111493683301
2.43173377580328
3.06544933753636
2.9167040542035
2.50281919287241
1.70633868250806
1.15316172092779
0.883575575798883
0.589673031108438
0.215318825109593
0.0196943490295098
0.000237474861239687
2.85660268954121e-07
5.79010860966826e-11
8.94201639105645e-12
1.4227409427764
2.19312099400142
3.009135846902
3.04007896479086
2.58915685901494
1.76098505690859
1.22424670621674
0.928248993456493
0.621684561059531
0.230580464810357
0.022352917404112
0.000288877218332088
3.6746879113018e-07
7.88875889073504e-11
8.68589194884936e-12
1.57392659051029
2.30453493395197
2.5930823706809
2.41437613519304
2.32290409181226
1.51371923160308
1.11925100210989
0.859106729041789
0.518227592580625
0.179651165363404
0.0164667444388948
0.000210184042242454
2.59419918949073e-07
4.84607031692639e-11
9.12500812580074e-12
1.46312497242487
2.22682505233459
2.84910179437784
2.74083345695734
2.49966065029053
1.70948155003854
1.17348304143665
0.88983005599294
0.581284203522217
0.210281353956987
0.020037106249309
0.000256201420479302
3.20475849196492e-07
6.57274721945356e-11
8.89456004498033e-12
1.41298459711349
2.15616676785435
3.01458986742076
2.98954872229436
2.58752441046546
1.76808726505599
1.24327196768559
0.944718133045638
0.6322511966365
0.230918698369652
0.0221980037541311
0.000286566584694717
3.64711903136772e-07
7.8387881655987e-11
8.68387532046364e-12
1.69655699587652
2.74259546953926
3.01750552639374
2.62475716100781
2.36418780435588
1.57622862562546
1.05422291069539
0.82397549130501
0.528257531061862
0.188118807569767
0.015699083683675
0.000169190037832165
1.8594473938072e-07
3.16873647339898e-11
9.23540369147104e-12
1.5311146720862
2.43173336534565
3.06545016336967
2.91670569966325
2.50281884547623
1.70633834056488
1.15316116440089
0.883575336731949
0.589672925934739
0.215318832921012
0.0196943582650416
0.000237474929684631
2.85660166317372e-07
5.79017875306748e-11
8.94224472723359e-12
1.42274090320861
2.1931208713988
3.00913569840454
3.04007954437857
2.58915598285336
1.7609847476097
1.22424635705427
0.928248688580754
0.621684444990344
0.230580465546055
0.0223529189231003
0.000288877186624166
3.67468690149519e-07
7.88878123936524e-11
8.6877907725893e-12
1.57392657689614
2.30453496911937
2.59308264412428
2.41437624279354
2.32290409587311
1.51371927476269
1.119250977059
0.859106730179496
0.518227604821969
0.179651169050733
0.0164667435993924
0.000210184022465523
2.59419898540214e-07
4.84624451179156e-11
9.12375325646974e-12
1.46312495794134
2.22682500993832
2.84910180234351
2.74083354536304
2.49966066658053
1.70948157876332
1.1734830141141
0.889830045248226
0.581284210322424
0.210281357917521
0.02003710604543
0.000256201410704767
3.20475837501445e-07
6.57287969581599e-11
8.89423773787631e-12
1.41298459127881
2.15616673539938
3.01458987552076
2.98954875659484
2.58752435052937
1.768087249311
1.24327194845651
0.944718125409541
0.632251199435138
0.230918700545858
0.0221980037732684
0.000286566581672243
3.64711897143919e-07
7.83882414696926e-11
8.68275106289605e-12
)
;

boundaryField
{
    inlet
    {
        type            calculated;
        value           nonuniform List<scalar> 
24
(
0.7667863339982
0.766786431268287
0.766786334228831
0.766786425023805
0.766786327322521
0.766786424850525
0.7667863339982
0.76604588739785
0.764876599001511
0.766786431268286
0.766046074235801
0.764876687047862
0.766786334228831
0.76604588771396
0.764876599155202
0.766786425023805
0.766046067284586
0.764876682598866
0.766786327322521
0.766045882043017
0.764876596167781
0.766786424850525
0.766046067032231
0.764876682461031
)
;
    }
    outlet
    {
        type            calculated;
        value           nonuniform List<scalar> 
156
(
0.00914386834305213
0.0571056891185712
0.134246861612884
0.192797464587603
0.294966373947238
0.666121485164422
0.696984787848553
0.510239287233962
0.187627364008499
0.0223977271847375
0.000610970629851028
2.74642247156873e-06
1.40873996394729e-09
9.6450549812913e-12
3.99700035346864e-12
0.0201601531246026
0.201180210734972
0.241297196180277
0.284183104871779
0.347447980015715
0.634901178335893
0.632476744090491
0.460318474716816
0.199782215765
0.0345911482742825
0.0015090543233908
1.05539138735955e-05
7.72102577250864e-09
8.72565477838131e-12
4.00062979963123e-12
0.00914387173359436
0.0571056238275508
0.134246780273112
0.192797376515207
0.294966318859813
0.666121462529958
0.696984771816995
0.510239257663096
0.18762733728238
0.0223977225712307
0.000610970603259975
2.74642335591729e-06
1.40874320901391e-09
9.64458783732355e-12
3.99682174574184e-12
0.0201602409171441
0.201180938002373
0.241298293494379
0.284183891931984
0.347448284181655
0.634901613831285
0.632477804739452
0.460318829482132
0.199781346323851
0.0345907814057716
0.00150903280811948
1.05537312378754e-05
7.72085499338491e-09
8.72443175447516e-12
3.99710913088506e-12
0.00914386438157993
0.0571064423820805
0.134247460040712
0.192797562769383
0.294966430403462
0.666121655574628
0.696984748826949
0.51023978977128
0.187628040364151
0.0223978638827862
0.000610972096939439
2.74640239030812e-06
1.40872816283772e-09
9.64311007233325e-12
4.00138840747082e-12
0.0201602527819916
0.201181054607173
0.241298419829481
0.28418399431039
0.347448346240129
0.634901647891224
0.632477858267211
0.46031885121141
0.199781318775237
0.0345907686519416
0.00150903203539604
1.05537245852239e-05
7.72085008632418e-09
8.72383726144091e-12
3.99710796242722e-12
1.16576659509137e-12
3.77332494906706e-14
3.13745178828924e-14
9.21522646873415e-15
5.00092136094862e-15
2.186358883578e-15
8.85111346784707e-16
1.16388807332764e-12
3.02895281730944e-14
3.65704331111529e-14
2.02041497104845e-14
1.3245239498431e-14
6.4501128960712e-15
1.71909846635321e-15
1.16545874311858e-12
3.75539829748237e-14
3.11925185860847e-14
9.18096216586367e-15
4.98117992002906e-15
2.18227953510667e-15
9.14534579039862e-16
1.16612223453367e-12
3.03687157960903e-14
3.71199933928305e-14
2.09390417077398e-14
1.38981242028507e-14
7.07925561684574e-15
1.94999078833812e-15
1.16174321968443e-12
3.74713175475792e-14
3.08140294979899e-14
8.74142854317325e-15
4.673242035232e-15
1.95966167696309e-15
8.45339814972244e-16
1.16620888919284e-12
3.02543045678832e-14
3.6941487830117e-14
2.07198028248555e-14
1.36885438027087e-14
6.86202383551144e-15
1.86772255048424e-15
0.0323498481795173
0.000252941968336931
0.041091747692572
0.441145411598886
0.0119652500202613
0.0108999241602492
0.0731333177641451
0.258011937429644
0.0323498574962369
0.000252944718587847
0.0410916968538849
0.44114532605674
0.0119651989501167
0.0109000498226421
0.0731336432683023
0.258012070360077
0.0323497668985454
0.000252902308608724
0.0410923347933063
0.441146772225118
0.0119651892468676
0.0109000570605416
0.0731336813944467
0.258012086160823
)
;
    }
    sides
    {
        type            calculated;
        value           nonuniform List<scalar> 
84
(
0.785968362225327
0.792096772477723
0.795995384533386
0.785968360632404
0.792096946224959
0.795995238955831
0.78596836191127
0.792096773950927
0.795995378833282
0.785968345584216
0.79209695305505
0.79599525455427
0.785968339520037
0.792096751550436
0.795995433019706
0.7859683452811
0.792096952096835
0.795995257503037
0.796968791399911
0.796317325557534
0.792091890886821
0.796968362994869
0.796318845837228
0.792089046547301
0.79696877932258
0.796317330626228
0.79209181315499
0.796968381837352
0.796318892734688
0.792089228130801
0.796968916967237
0.79631735165139
0.79209248354086
0.796968381906798
0.796318877372086
0.792089251542386
0.783663485772463
0.783661266788733
0.783663441234254
0.783661396648092
0.783663714552269
0.783661408318392
0.778665715947173
0.778660010752708
0.778665642796471
0.778660218550631
0.778666191241714
0.778660238156371
0.778486353763579
0.778484041020933
0.778486360218529
0.778484137070789
0.778486373840437
0.778484142755191
0.790620622403365
0.79060855315456
0.79062063032275
0.790608601419837
0.790620584258977
0.790608606434582
0.812867796656631
0.812755959951905
0.812867797633509
0.812756064794623
0.812867886221284
0.812756072722729
0.84857450701541
0.848352975909648
0.848574500538888
0.848352953051323
0.848574558708463
0.84835296090586
0.897567281314056
0.897652491296355
0.897567280235423
0.897652457852151
0.897567301749851
0.897652454912306
0.986700936980306
0.986019247273501
0.986700936692042
0.986019262155286
0.986700982600734
0.986019261297469
)
;
    }
}


// ************************************************************************* //
