/*--------------------------------*- C++ -*----------------------------------*\
  =========                 |
  \\      /  F ield         | OpenFOAM: The Open Source CFD Toolbox
   \\    /   O peration     | Website:  https://openfoam.org
    \\  /    A nd           | Version:  11
     \\/     M anipulation  |
\*---------------------------------------------------------------------------*/
FoamFile
{
    format      ascii;
    class       volScalarField;
    location    "0.0000700081";
    object      p;
}
// * * * * * * * * * * * * * * * * * * * * * * * * * * * * * * * * * * * * * //

dimensions      [1 -1 -2 0 0 0 0];

internalField   nonuniform List<scalar> 
900
(
781607.504076793
775750.494601416
771379.363738982
781906.350604751
776024.010431876
771532.48809998
781997.466190722
776263.733217219
771624.0670055
781607.29979828
775750.758148853
771379.33600786
781905.822438992
776024.113414483
771532.659504396
781997.541269994
776263.755503542
771623.999379701
781607.501705007
775750.497871978
771379.365121163
781906.349052079
776024.012945835
771532.489609911
781997.465012684
776263.733384561
771624.067791549
781607.304472451
775750.749574467
771379.316228034
781905.834598979
776024.101660263
771532.647133469
781997.546601507
776263.747186036
771623.993750292
781607.522583917
775750.478235818
771379.341441032
781906.361365916
776023.995393697
771532.46530241
781997.477668226
776263.727447291
771624.059069459
781607.306300843
775750.748756104
771379.315603176
781905.836323157
776024.10131416
771532.647205138
781997.54740064
776263.74671607
771623.992638385
769512.694463311
768859.904610363
771257.090606861
769663.337560213
768971.445655741
771331.700128409
769763.081982956
769038.415487334
771334.06758604
769512.974477169
768858.924724152
771258.990782025
769663.989960162
768970.131428645
771333.12204402
769762.97284014
769038.24204127
771334.37530722
769512.70463544
768859.903274061
771257.147872237
769663.348314555
768971.440877614
771331.761879855
769763.085088961
769038.412439945
771334.085394134
769512.946813815
768858.902810095
771258.845948035
769663.978635907
768970.080443055
771332.980971497
769762.933146831
769038.228198808
771334.359395334
769512.596806042
768859.871709159
771256.691452252
769663.241030659
768971.459507412
771331.260940197
769763.059091134
769038.411997627
771333.959701545
769512.945071845
768858.916413274
771258.825489097
769663.977005115
768970.088877087
771332.960312358
769762.928288249
769038.230753847
771334.355390665
777129.776680879
777175.626159864
777196.172506178
777131.310056232
777176.106857121
777196.265333572
777129.797065945
777175.651198317
777196.180323818
777131.270376735
777176.071045749
777196.243033353
777129.725604335
777175.562904336
777196.128855261
777131.263776575
777176.065162027
777196.236762214
780285.513558541
780304.745058509
780311.052030875
780290.940379996
780307.27183738
780311.289628071
780285.581286722
780304.797014496
780311.065239077
780290.849074847
780307.207611372
780311.264278408
780285.089971347
780304.438191958
780310.971083227
780290.836544805
780307.196328037
780311.260546031
777712.005428805
777715.994473773
777716.200141436
777715.472789284
777718.647102792
777717.293631805
777712.014219005
777716.002592831
777716.201687806
777715.398771144
777718.607524482
777717.286793376
777711.917020717
777715.931858259
777716.192133344
777715.387651386
777718.5994732
777717.284627511
765206.955419408
765202.780198095
765202.252526057
765210.743968552
765206.827329601
765203.128415862
765206.954012588
765202.778169778
765202.250545979
765210.698742574
765206.813468968
765203.123241345
765206.970905413
765202.798711902
765202.269934363
765210.686598941
765206.808381919
765203.12125424
744269.526640284
744345.203397135
744359.633350743
744283.084604579
744331.421350686
744354.844851982
744269.524991325
744345.202050673
744359.632228452
744283.016354447
744331.364239895
744354.821816379
744269.504623711
744345.184516716
744359.626569765
744283.005299842
744331.357056173
744354.819403004
711988.452655923
711526.648918175
711376.776440343
712016.835035066
711653.565216108
711368.650364743
711988.45804428
711526.651239159
711376.779133143
712016.886963614
711653.608868513
711368.655409866
711988.457342628
711526.664815806
711376.783353546
712016.879899132
711653.602421901
711368.654477069
671866.097801036
671830.037886106
672115.903831904
671652.339469758
671837.087219635
672127.924834754
671866.102733083
671830.040449012
672115.905531579
671652.386108376
671837.120290941
672127.941432498
671866.086057105
671830.024926234
672115.898306752
671652.387636347
671837.120805619
672127.942706845
606058.379958024
607011.580573443
608502.269168745
606452.377474955
607501.236301475
608610.464371828
606058.383126715
607011.582176483
608502.268926089
606452.410198698
607501.261322513
608610.473404748
606058.370444188
607011.578648714
608502.274326973
606452.41018027
607501.261591443
608610.47416596
799672.323017438
800023.793907932
800096.063377829
799672.345954247
800023.734081614
800096.081647821
799672.322967357
800023.793961069
800096.063358338
799672.346133579
800023.735389337
800096.081479201
799672.323995419
800023.793084238
800096.06392166
799672.346175516
800023.735485296
800096.081474085
55643.6138836023
85826.789398648
86544.9638383104
83121.4567193387
87544.8121543208
110844.538216395
128893.307895117
125615.371804133
111914.13216861
102762.469449161
101370.343703415
101325.227090971
101325.000130934
101324.999995373
101324.999995337
55653.6171573264
88893.6187500519
92064.6362590844
82222.1283164578
74492.8399959439
95978.2591878019
141169.191582868
147933.295346391
132115.909604689
107570.665072051
101587.402395194
101326.667208091
101325.00116846
101324.99999702
101324.999996291
41936.8439734543
59647.5684844567
77380.3809928499
74864.1372881098
68679.5953488044
95634.8481723085
169525.860806862
170501.78717076
151667.327209149
114004.385451455
101997.609832559
101330.232476279
101325.004361261
101324.999997215
101324.999996458
37048.2955564885
29877.3871627867
44550.1513924501
61080.8039282605
66719.0878786179
110066.81962137
196167.408846699
196803.211428728
169368.937174102
121583.154483986
102649.998944611
101337.514746969
101325.012177746
101324.999998036
101324.999996673
75879.5014433466
98378.1762778686
94061.3201070914
90414.2980518564
98497.2698813914
116239.986991531
128176.953983237
130055.113851826
116153.882750201
104446.039466097
101490.335884827
101326.350936377
101325.001123073
101324.999995496
101324.999995324
84272.3924265596
106885.818123803
95107.098279536
81810.614147835
79840.0348123661
100812.193305293
132319.547119611
128564.835390035
122499.174680676
108448.323335668
101857.785316296
101330.617409946
101325.005619835
101324.999997377
101324.999996339
74733.9944167271
94562.7774892243
93063.677099846
76952.5148404584
69105.8660236813
98438.2629254043
157980.275330738
151701.247530848
139693.63213699
114081.13011557
102347.77986044
101336.846108242
101325.013202543
101324.999998015
101324.999996551
76157.9674549123
61648.2865134953
63713.0634833461
66286.7742152159
66962.8705320376
101788.905138438
164354.316418706
164409.79138027
154050.483684766
120370.383997009
103007.260597756
101345.805276098
101325.024447803
101324.99999934
101324.999996712
55643.6068375469
85826.7751723485
86544.9518494404
83121.4508830671
87544.8093207476
110844.534816953
128893.303470371
125615.36565989
111914.126870564
102762.468710781
101370.343693834
101325.227091055
101325.000130934
101324.999995373
101324.999995337
55653.6115704762
88893.6133948498
92064.6275208199
82222.1251711143
74492.8342662033
95978.2530450816
141169.195797912
147933.299550661
132115.907095429
107570.663495215
101587.402336036
101326.667208061
101325.00116846
101324.999997021
101324.999996292
41936.8435887885
59647.5760097949
77380.3803501987
74864.1343797582
68679.5882808975
95634.8376535881
169525.853570666
170501.786689589
151667.325835308
114004.383655603
101997.609718299
101330.232475907
101325.004361262
101324.999997216
101324.999996458
37048.2993263148
29877.3936015356
44550.1573918573
61080.805889704
66719.0818915998
110066.810097392
196167.410938444
196803.215197578
169368.936710436
121583.152429798
102649.998778672
101337.51474615
101325.012177747
101324.999998036
101324.999996673
75879.4692108664
98378.1562346957
94061.3412127607
90414.3600925871
98497.3476277419
116240.146341903
128177.228261481
130055.162491849
116153.711967575
104445.991181417
101490.333101453
101326.35091158
101325.001123051
101324.999995497
101324.999995326
84272.4073512683
106885.815287465
95107.1331824334
81810.6826873593
79840.1230516056
100812.186403331
132319.79555513
128565.01440151
122499.309685377
108448.30550774
101857.780246372
101330.617327554
101325.005619736
101324.999997375
101324.999996338
74734.0023375184
94562.7132543472
93063.6878040342
76952.5756374005
69105.9385350964
98438.2320778026
157980.491657798
151701.480857801
139693.732221718
114081.109610791
102347.773824286
101336.845999719
101325.013202402
101324.999998016
101324.999996551
76158.0422396475
61648.1658752587
63713.026690542
66286.8198361157
66962.9232134935
101788.95300164
164354.548457421
164410.102408476
154050.618921936
120370.369938564
103007.254711974
101345.805166003
101325.024447668
101324.999999341
101324.999996713
55643.669257314
85826.9184873708
86545.0379224482
83121.4706113087
87544.8024235679
110844.506019222
128893.314787103
125615.484144638
111914.269790676
102762.491115521
101370.344064096
101325.227089215
101325.000130929
101324.999995372
101324.999995337
55653.6579292893
88893.6741934114
92064.7309203767
82222.1519484851
74492.9009081905
95978.3521597847
141169.016094159
147933.137622485
132115.956095679
107570.707510447
101587.40420217
101326.667211161
101325.001168451
101324.999997024
101324.999996292
41936.8148089431
59647.4684563215
77380.3627667499
74864.1619112833
68679.6806216828
95635.0504447341
169525.947985969
170501.732311595
151667.337172502
114004.432387758
101997.61320142
101330.232491093
101325.004361252
101324.999997216
101324.999996458
37048.2190772272
29877.2950971589
44550.0498124525
61080.7624615528
66719.1792585524
110066.987687342
196167.248910787
196803.050782385
169368.922553878
121583.206040705
102650.003622176
101337.514775593
101325.012177737
101324.999998035
101324.999996672
75879.4737553613
98378.1567489057
94061.3433405894
90414.3666840145
98497.354135138
116240.157072704
128177.241258806
130055.166134749
116153.706633768
104445.989523094
101490.333001953
101326.350910677
101325.001123051
101324.999995497
101324.999995325
84272.4126326175
106885.8175015
95107.1361354107
81810.6892121426
79840.1307275419
100812.188673034
132319.80647822
128565.021954325
122499.314804244
108448.30490865
101857.7800645
101330.617324563
101325.005619733
101324.999997375
101324.999996337
74734.003393663
94562.7092441636
93063.6904554389
76952.5804863723
69105.9444006551
98438.2360818467
157980.502124055
151701.490512649
139693.736323832
114081.109008357
102347.773612952
101336.845995771
101325.013202397
101324.999998016
101324.999996551
76158.0476459951
61648.1563944462
63713.0249983524
66286.8239847735
66962.9274088716
101788.958976301
164354.560292707
164410.114151983
154050.623976294
120370.369611231
103007.254515215
101345.80516206
101325.024447664
101324.999999341
101324.999996713
182404.462926056
40418.3251085494
28788.2955104424
43687.6034968455
63602.3427983522
120624.918406348
206706.479817769
214746.764516403
180088.531002577
127569.887012752
103332.75983307
101347.062681148
101325.024237564
101324.999999444
101324.999996791
256022.053901914
64939.4903396715
28314.3862465549
33665.7239093659
58528.3638192512
125631.553106071
217041.314585559
233038.3217729
185284.975400712
130412.991090271
103827.965277323
101355.722099939
101325.03715932
101325.000001077
101324.999996842
309105.519196436
92980.3861339469
30803.2376809158
30737.9676838715
55163.5218223072
127974.649663416
213550.585016484
230897.35603494
184949.844209757
131997.393859041
104235.897533194
101363.740069494
101325.049532575
101325.000002695
101324.999996865
222084.221830284
71610.3313620838
42481.4563796121
51272.9858941913
63550.1307756736
117122.722474974
178309.983925541
189476.040930795
167255.549839695
125432.236850056
103585.0100201
101354.366770969
101325.036003695
101325.000000775
101324.999996806
290220.417631045
92640.2550498266
37242.0695786138
40697.8326061063
58377.9702207611
124121.881993462
190941.37398283
204896.476967527
173599.687054357
129204.358666317
104000.955138684
101360.364804214
101325.044188904
101325.000001869
101324.99999685
323616.064535505
107008.318942492
33990.9128617889
33244.4024634144
55323.1385498099
127376.8191813
208507.937168752
232713.585428836
186067.354226263
132130.101215467
104236.854638056
101363.66518982
101325.04935055
101325.000002589
101324.999996868
182404.448153687
40418.3221153421
28788.2989335002
43687.6070139874
63602.3408083125
120624.908712856
206706.477524878
214746.768160476
180088.531228281
127569.885445601
103332.759678265
101347.062680329
101325.024237564
101324.999999444
101324.999996791
256022.041277827
64939.4850018192
28314.3876278232
33665.7268120594
58528.3597658471
125631.546624486
217041.31290969
233038.323054153
185284.975014091
130412.990060607
103827.965173269
101355.722099587
101325.03715932
101325.000001077
101324.999996842
309105.513155438
92980.3820758754
30803.2378898868
30737.9690312755
55163.5210380289
127974.647632998
213550.584536041
230897.35704898
184949.844164022
131997.393465553
104235.897506111
101363.740069641
101325.049532576
101325.000002695
101324.999996865
222084.430688521
71610.3338142188
42481.379335228
51272.9918103625
63550.2018343658
117122.784557612
178310.146160711
189476.29868903
167255.691731936
125432.23305308
103585.005500657
101354.366686422
101325.036003602
101325.000000776
101324.999996807
290220.553672527
92640.3270226228
37242.0587288527
40697.8115934404
58378.0736968644
124121.985821696
190941.496698501
204896.544300073
173599.738604282
129204.361804352
104000.952927234
101360.364759869
101325.044188853
101325.00000187
101324.999996851
323616.119025534
107008.375820457
33990.8961109496
33244.3859333983
55323.171925511
127376.854706463
208507.855363861
232713.550614775
186067.367343258
132130.107298252
104236.854473076
101363.665172765
101325.049350523
101325.000002589
101324.999996867
182404.638931158
40418.3503923664
28788.2376557244
43687.546549121
63602.3847463487
120625.068342002
206706.44290717
214746.616345927
180088.497285134
127569.92449115
103332.764083666
101347.062709613
101325.024237552
101324.999999442
101324.999996791
256022.202339446
64939.5447399545
28314.3687188317
33665.6849945322
58528.4396065284
125631.656787703
217041.307335124
233038.260315154
185284.966851276
130413.014378074
103827.968034609
101355.722113783
101325.037159304
101325.000001075
101324.999996841
309105.590294764
92980.4328101962
30803.230416807
30737.9493723867
55163.5381316388
127974.68709
213550.568093441
230897.319846908
184949.84019473
131997.402851873
104235.898129399
101363.740066028
101325.049532559
101325.000002694
101324.999996865
222084.447330708
71610.3343042004
42481.373984488
51272.9927371156
63550.2060428963
117122.791070057
178310.155675544
189476.308107794
167255.696834894
125432.233063103
103585.005355892
101354.366683456
101325.036003599
101325.000000776
101324.999996806
290220.565307374
92640.3329951399
37242.0575827852
40697.8098761042
58378.0794676677
124121.993755064
190941.503491088
204896.546953341
173599.740457161
129204.362004978
104000.95286123
101360.364758335
101325.044188851
101325.00000187
101324.999996851
323616.123843203
107008.380686734
33990.8953628297
33244.3845278215
55323.1735628006
127376.856958809
208507.853135504
232713.549902967
186067.36811379
132130.107582651
104236.854471816
101363.665172135
101325.049350522
101325.000002589
101324.999996867
)
;

boundaryField
{
    inlet
    {
        type            timeVaryingMappedFixedValue;
        fieldTable      p;
        value           nonuniform List<scalar> 
24
(
800000.088035772
800000.088035772
800000.088035772
800000.088035772
800000.088035772
800000.088035772
800000.088035772
800000.088035772
800000.088035772
800000.088035772
800000.088035772
800000.088035772
800000.088035772
800000.088035772
800000.088035772
800000.088035772
800000.088035772
800000.088035772
800000.088035772
800000.088035772
800000.088035772
800000.088035772
800000.088035772
800000.088035772
)
;
    }
    outlet
    {
        type            freestreamPressure;
        freestreamValue uniform 101325;
        supersonic      false;
        value           nonuniform List<scalar> 
156
(
58809.0137889146
91225.3148496577
91582.70102175
90067.0317819576
96891.0768837534
101839.685480389
102592.82066329
102190.058573664
101895.432217072
101429.214200956
101328.971814485
101325.022910177
101325.000017625
101324.999996759
101324.99999647
80619.4582239803
100367.371864841
97815.2837022369
95999.4483577893
100483.068777585
102424.361519678
102807.146904856
102732.073126878
102350.376951049
101621.305221223
101346.604833869
101325.224360129
101325.000240724
101324.999996801
101324.999996461
58809.0074249381
91225.3019326969
91582.6915083512
90067.0269902174
96891.0763325591
101839.685219962
102592.820264638
102190.058193243
101895.431809192
101429.214114972
101328.971813072
101325.022910188
101325.000017625
101324.99999676
101324.99999647
80619.4494506579
100367.366447627
97815.2984812945
95999.4838093796
100483.092817527
102424.371813747
102807.164487475
102732.071987964
102350.355804827
101621.298158999
101346.604365098
101325.22435555
101325.00024072
101324.999996801
101324.999996461
58809.0695108067
91225.4353027377
91582.7603388901
90067.0330178585
96891.0590939173
101839.684318718
102592.824704696
102190.066026473
101895.442795241
101429.21674407
101328.97186698
101325.022909948
101325.000017624
101324.99999676
101324.999996471
80619.455963291
100367.366977311
97815.3004278859
95999.4878962941
100483.094832941
102424.372650937
102807.165375572
102732.072115764
102350.355148122
101621.297918166
101346.604348445
101325.224355384
101325.00024072
101324.999996801
101324.999996461
101324.999995669
101324.999996303
101324.999996468
101324.999996676
101324.999996793
101324.999996842
101324.999996865
101324.999995657
101324.999996348
101324.999996563
101324.999996719
101324.99999681
101324.999996853
101324.999996868
101324.999995669
101324.999996303
101324.999996468
101324.999996676
101324.999996793
101324.999996842
101324.999996865
101324.999995659
101324.999996347
101324.999996563
101324.99999672
101324.999996811
101324.999996854
101324.999996868
101324.999995667
101324.999996303
101324.999996468
101324.999996675
101324.999996792
101324.999996842
101324.999996866
101324.999995658
101324.999996346
101324.999996563
101324.99999672
101324.999996811
101324.999996853
101324.999996868
66883.4406497505
55769.5059554606
44714.9226845752
44276.2734624036
78695.5169946601
85040.6218051801
76352.1292434988
78068.8138393216
66883.4350086091
55769.5016377111
44714.9200501321
44276.2760197864
78695.4742642546
85040.643051519
76352.142797485
78068.8848236508
66883.4753006603
55769.528625669
44714.9196880015
44276.2180282281
78695.4760377707
85040.6483870515
76352.144445989
78068.8899837338
)
;
    }
    sides
    {
        type            zeroGradient;
    }
}


// ************************************************************************* //
