/*--------------------------------*- C++ -*----------------------------------*\
  =========                 |
  \\      /  F ield         | OpenFOAM: The Open Source CFD Toolbox
   \\    /   O peration     | Website:  https://openfoam.org
    \\  /    A nd           | Version:  11
     \\/     M anipulation  |
\*---------------------------------------------------------------------------*/
FoamFile
{
    format      ascii;
    class       surfaceScalarField;
    location    "0.0000700081";
    object      phi;
}
// * * * * * * * * * * * * * * * * * * * * * * * * * * * * * * * * * * * * * //

dimensions      [1 0 -1 0 0 0 0];

internalField   nonuniform List<scalar> 
2478
(
0.000811116215466271
-0.00017011774002868
1.82434632559157e-10
1.68073337257317e-10
-0.00102497585139733
0.000621436131009623
-0.000150957748925208
2.85210189883769e-11
-3.8682832436375e-12
-0.000131236295528941
-2.85869536050844e-11
-4.92037940610663e-11
0.000456410211309028
0.000486653653783008
-4.24282086676946e-05
6.50595397325669e-11
5.4603032490462e-11
-0.00061473528673567
0.000372867563162906
-3.76697067417163e-05
1.71571139457108e-11
-1.73612337613788e-11
-3.27916813300337e-05
-3.93094472988034e-11
-5.95609516297179e-11
0.000273892265428325
0.00016206592730179
9.90832954963008e-11
8.87236735903213e-11
-0.000204625585311678
0.000124232624187847
1.79138331772577e-11
-1.83461443194373e-11
-4.80528507338773e-11
-7.03136077736654e-11
9.1263294691692e-05
0.000811116523208736
-0.000170118344050007
-1.80804751433259e-10
-0.0010249760408315
0.000621436242263052
-0.000150957822737576
-2.65161245282912e-11
-0.000131236112761956
3.04648836268583e-11
0.000456410176975794
0.000486653670743103
-4.24286007043513e-05
-6.34751493445822e-11
-0.000614735420066666
0.000372867703175577
-3.7669742600658e-05
-1.46424935978245e-11
-3.27914810890669e-05
4.00023757608087e-11
0.000273892323660772
0.000162065953031855
-9.71169523381228e-11
-0.000204625611968199
0.000124232618062085
-1.57092992043514e-11
4.83894866721863e-11
9.12632808642823e-05
0.000811116217094525
-0.000170117742745652
1.68348137947333e-10
-0.00102497585198929
0.000621436131186202
-0.000150957754072589
-3.95026220935402e-12
-0.000131236297555343
-4.91819499080608e-11
0.00045641020990724
0.000486653654463778
-4.24282104770907e-05
5.47404924665894e-11
-0.000614735287269325
0.000372867563962409
-3.76697088619215e-05
-1.76008136017203e-11
-3.2791681483894e-05
-5.92595638900829e-11
0.000273892264377178
0.000162065927308844
8.88209502692208e-11
-0.000204625585386617
0.00012423262418496
-1.81743953654029e-11
-6.99247195790152e-11
9.12632944630938e-05
0.000811116522615574
-0.000170118312820868
-1.75425456821511e-10
-0.00102497602885498
0.000621436241261913
-0.000150957768663797
-3.20683990430101e-11
-0.000131236076138785
2.40028529008025e-11
0.000456410180730276
0.000486653674648819
-4.24285868834692e-05
-6.16464586626272e-11
-0.000614735412562194
0.000372867703171647
-3.76697116964114e-05
-2.20284103458201e-11
-3.2791458617179e-05
3.98980329568803e-11
0.000273892320555122
0.000162065953998416
-9.6531822195e-11
-0.000204625610158896
0.000124232617794764
-2.02961489303467e-11
5.03474991461316e-11
9.12632817849163e-05
0.000811116201229686
-0.000170117735053029
1.73496437268911e-10
-0.00102497583787479
0.000621436127976227
-0.000150957671892202
3.00942243130695e-11
-0.000131236244307663
-2.59736260277421e-11
0.000456410229479284
0.000486653646596691
-4.24282048217949e-05
5.98980226854638e-11
-0.000614735278922336
0.000372867555910172
-3.7669669618437e-05
1.96946205546257e-11
-3.27916623978694e-05
-4.09598873644512e-11
0.000273892276609366
0.000162065927515345
9.44537504308542e-11
-0.000204625584292123
0.000124232623500852
1.78836290936658e-11
-5.11110953636384e-11
9.12632959028089e-05
0.000811116522120433
-0.000170118308658445
-0.00102497602837903
0.000621436241635545
-0.000150957763568081
-0.000131236073470067
0.000456410181524131
0.000486653674988899
-4.24285846924688e-05
-0.0006147354121636
0.000372867703489066
-3.76697089690653e-05
-3.27914573961581e-05
0.000273892321177771
0.000162065953989391
-0.000204625610075264
0.000124232617727372
9.12632819269019e-05
0.000455823673455653
4.90822688833091e-07
-4.16047561744952e-10
-4.22229003659274e-10
0.000454882575432348
2.40201290368147e-07
7.25712996424085e-10
6.74476750655e-10
9.31099814815506e-08
-7.12858742413051e-10
-6.75277545415364e-10
0.000453226695185434
0.000273549577249455
1.42607776690642e-07
-1.61929200571346e-10
-1.57001300794737e-10
0.000272971664761838
6.64105708370489e-08
3.9337232814662e-10
3.23072267668836e-10
2.60565846063338e-08
-5.96253658317718e-10
-5.38798038791314e-10
0.000271964533331006
9.117538472874e-05
-1.87538393939691e-10
-1.62231318222988e-10
9.09919480727409e-05
3.09985775763522e-10
2.04420057161973e-10
-2.53354893867738e-10
-5.60497747390323e-11
9.06604250494924e-05
0.000455823818744996
4.92468924299938e-07
4.04170087968305e-10
0.000454882675169108
2.36696528866189e-07
-7.02513309948794e-10
9.73602138794587e-08
6.83151080952023e-10
0.000453226106944294
0.000273549946072791
1.43289693838445e-07
1.51380615833439e-10
0.000272970924784055
6.55024285984478e-08
-3.69917785313957e-10
2.68024754432219e-08
5.63452636219604e-10
0.000271965015007662
9.11753467520988e-05
1.73988947977776e-10
9.09921016965448e-05
-2.79888461474261e-10
2.16535815048945e-10
9.06605539202751e-05
0.000455823675626428
4.90856250326735e-07
-4.1825466169914e-10
0.000454882572398714
2.4013856863821e-07
6.69091872727325e-10
9.32263061678706e-08
-6.55254266698855e-10
0.000453226683166824
0.000273549579730812
1.42624267914556e-07
-1.54609260181841e-10
0.000272971663308597
6.63793697570805e-08
3.1893436296896e-10
2.61011249595646e-08
-5.17312871413465e-10
0.000271964548166633
9.11753847541183e-05
-1.59565260798248e-10
9.09919480263286e-05
2.03643737777762e-10
-5.1736469166945e-11
9.06604264050276e-05
0.000455823816590349
4.92518659862395e-07
4.61200494190472e-10
0.000454882704138116
2.36706473889293e-07
-8.14107703451215e-10
9.74021387530792e-08
8.7387565646203e-10
0.000453226121938442
0.000273549956168715
1.43296296244676e-07
1.87504126428987e-10
0.000272970910959314
6.55480063255871e-08
-4.56614755283812e-10
2.66804636021617e-08
7.57948001562335e-10
0.000271965045236622
9.11753415158506e-05
2.17123480924109e-10
9.09921102351013e-05
-3.53473840529559e-10
3.0918466761452e-10
9.06605547614867e-05
0.000455823669895016
4.90673257067084e-07
-4.53290974525809e-10
0.000454882604934156
2.40584047088129e-07
7.95848873076915e-10
9.23057620114522e-08
-8.62916029484382e-10
0.000453226792945911
0.000273549563891362
1.42534665365705e-07
-1.793787405939e-10
0.000272971698760141
6.65688633304197e-08
4.36949570005018e-10
2.57485453397676e-08
-7.455716728136e-10
0.000271964433878969
9.11753865976616e-05
-2.06388825571991e-10
9.09919421609366e-05
3.25437138446339e-10
-2.85613809458598e-10
9.06604066268039e-05
0.000455823813198145
4.9250292100296e-07
0.000454882705553329
2.36752088954187e-07
9.73918340304008e-08
0.000453226122655364
0.000273549955709189
1.43287168741289e-07
0.000272970911007895
6.55769295662342e-08
2.66594143359905e-08
0.000271965047703679
9.11753407560238e-05
9.09921111260655e-05
9.06605554591701e-05
3.91504607935375e-05
1.96917993900998e-10
4.51721038287507e-10
0.00050029803721286
9.78801614598613e-06
-5.46419597936831e-11
1.66422467169983e-10
0.000300197339268787
-7.321613969399e-11
2.23250657543916e-10
0.000100071995326905
3.91498141789431e-05
-2.08180531190497e-10
0.00050029708162877
9.78790512178745e-06
3.76429068579993e-11
0.000300197223727256
4.83573434659039e-11
0.00010007203867775
3.91505026184671e-05
4.50227013602724e-10
0.000500298017581026
9.7880453157158e-06
1.74221254935734e-10
0.000300197342850513
2.27156341696746e-10
0.000100071997032933
3.91493519062432e-05
-2.71476795308135e-10
0.000500297162110743
9.78763289713117e-06
5.36166009593858e-11
0.000300197270941563
7.27651628187886e-11
0.000100072043897797
3.91500908202033e-05
2.84650242341877e-10
0.000500298172154503
9.78775423267976e-06
-4.40078627293901e-11
0.000300197345799864
-5.36517320371202e-11
0.000100071992573681
3.91493383092628e-05
0.000500297167539184
9.78761741127784e-06
0.000300197276146928
0.000100072044537699
3.26261079128518e-05
-1.30180594022688e-09
-1.08882188042201e-09
0.000539668539695731
8.15454431051909e-06
-2.3724956008022e-09
-2.10579173467052e-09
0.000323810334337542
-9.24183841922391e-10
-5.70561207817715e-10
0.0001079405031053
3.26394477125111e-05
1.27461709714454e-09
0.000539668362460567
8.15806532847258e-06
2.32688047465106e-09
0.000323810706929821
8.69219551967015e-10
0.00010794062913171
3.26262691179768e-05
-1.06704527798231e-09
0.000539668541097679
8.15462290540111e-06
-2.07250175517353e-09
0.000323810341754798
-5.48431478887296e-10
0.00010794050430185
3.26389655912127e-05
1.22043746528071e-09
0.000539668436521839
8.1578121256674e-06
2.41803772409741e-09
0.000323810737682257
9.94099134986933e-10
0.000107940631961305
3.26252519933314e-05
-1.2159979235018e-09
0.000539668551200112
8.15407061812215e-06
-2.40617344332648e-09
0.000323810310856405
-9.6159680131741e-10
0.00010794050162581
3.26389718677078e-05
0.000539668439894317
8.15780139658588e-06
0.000323810738684998
0.000107940631875912
2.23857098405891e-05
-1.51084467327331e-09
-1.11062440776195e-09
0.000567166140334537
5.59547855461423e-06
-1.2481263875078e-09
-8.04154755968105e-10
0.000340306673378927
-7.61501472827403e-10
-2.63073213495509e-10
0.000113438451501722
2.23926437868304e-05
1.45845676990464e-09
0.000567166753434206
5.59785700004388e-06
1.1935302395385e-09
0.00034030720468548
7.04471629414585e-10
0.000113438527467943
2.23858368743431e-05
-1.09742274030091e-09
0.000567166146060319
5.59554213717034e-06
-7.9182931121257e-10
0.00034030667839056
-2.56024958720548e-10
0.000113438452181198
2.23918824663483e-05
1.60258454748839e-09
0.000567166775825884
5.59744366022616e-06
1.31007589005598e-09
0.000340307212963901
8.01440643558894e-10
0.000113438527422822
2.23846469009299e-05
-1.56197118168213e-09
0.000567166121979844
5.59494989503322e-06
-1.27138438736326e-09
0.000340306656269024
-7.51344238615701e-10
0.000113438451043353
2.23918058232016e-05
0.000567166772913753
5.59740000716642e-06
0.000340307211086813
0.000113438526930519
2.75504897285464e-06
-8.86283608666789e-09
-8.36660316488923e-09
0.000571723852666216
6.85368101121142e-07
-4.73079051014616e-09
-4.20946222665216e-09
0.000343017536552555
-2.49234954912856e-09
-1.93133760313701e-09
0.000114338866681121
2.78291643141849e-06
8.80415463840392e-09
0.000571712545715839
6.9431629249006e-07
4.67082355480814e-09
0.00034301791521088
2.43099781830399e-09
0.000114338508064593
2.75517716407075e-06
-8.3594189643349e-09
0.000571723853354285
6.85433016471906e-07
-4.20304386769804e-09
0.000343017538031151
-1.92733040703212e-09
0.000114338867028197
2.7820379215833e-06
8.96319832775511e-09
0.00057171255065154
6.93843473459333e-07
4.80140036003595e-09
0.000343017921934521
2.52701403742226e-09
0.00011433850546814
2.75388091578745e-06
-8.91065315256718e-09
0.000571723867034625
6.84796558925952e-07
-4.74772502144808e-09
0.000343017537463027
-2.46957425369858e-09
0.000114338868514359
2.78193561618423e-06
0.000571712545704788
6.93789288730906e-07
0.000343017919990401
0.000114338504258306
7.47275845392286e-05
5.02488003841861e-08
5.08417882332229e-08
0.000666973916329566
1.86932241118926e-05
2.1741140028694e-08
2.23435903181106e-08
0.000400284029648964
1.57828478377351e-08
1.64459891047316e-08
0.000133424626782317
7.45469381268222e-05
-5.0318434507415e-08
0.000666973040407368
1.86317040934719e-05
-2.1811069983804e-08
0.000400250296586451
-1.58572070909735e-08
0.00013342610616054
7.47277262262806e-05
5.0843280264873e-08
0.000666973912176668
1.86932973973137e-05
2.23456367840803e-08
0.000400284027170326
1.64456593276731e-08
0.000133424626468638
7.45458971497452e-05
-5.01417887452155e-08
0.000666973034565422
1.86311339315135e-05
-2.16640178508009e-08
0.000400250295298409
-1.57614170020592e-08
0.000133426102167711
7.47262685531102e-05
5.02101330145327e-08
0.000666973956813521
1.8692589052702e-05
2.17317714576708e-08
0.000400284042065323
1.58352116214544e-08
0.000133424626660309
7.45457583441139e-05
0.000666973032535371
1.86310599426728e-05
0.00040025029470995
0.000133426101098138
0.00107270569088016
-2.37658308742579e-07
-2.36379717260919e-07
0.00201612068813379
0.000268056134102556
-9.56177901159172e-08
-9.43363671120231e-08
0.0012094826416218
-6.04000156410227e-08
-5.90789021403626e-08
0.000403054589435789
0.00107343022828415
2.37555443563314e-07
0.00201591615585399
0.000268322887275804
9.55148948783395e-08
0.00120953315050517
6.02874081085118e-08
0.00040308295011885
0.00107270589112198
-2.36386841121611e-07
0.00201612068993777
0.000268056241858389
-9.4339448772384e-08
0.00120948263512554
-5.90841397545244e-08
0.000403054590193929
0.00107342805852933
2.37767022355886e-07
0.00201591621386449
0.000268321734980541
9.56851965006446e-08
0.00120953320423353
6.04235896466175e-08
0.000403082968508927
0.00107270322256337
-2.37655978280312e-07
0.0020161207839058
0.000268054897160793
-9.5578265932024e-08
0.00120948271749779
-6.0306381268469e-08
0.000403054599485033
0.00107342783113925
0.00201591621101274
0.000268321614511844
0.00120953320120248
0.000403082968944634
0.000714152945787094
4.2249380589757e-08
4.42588885865005e-08
0.00292872002083134
0.000178675247488239
9.2369342091672e-08
9.44194700332147e-08
0.00175726998252111
2.24618858325537e-08
2.45579266495944e-08
0.00058586592364219
0.000713965327834589
-4.23879458280336e-08
0.00292884914740599
0.000178595965262891
-9.25095610801105e-08
0.00175759716939111
-2.26068420006078e-08
0.000585905453421982
0.00071415322411636
4.42520438957792e-08
0.00292872003678505
0.000178675386828055
9.44146482993822e-08
0.00175726998620815
2.45534194065998e-08
0.000585865925525574
0.000713961625397599
-4.21375354144916e-08
0.00292884929970333
0.000178594061160805
-9.23060614892342e-08
0.00175759727364781
-2.24514721247886e-08
0.000585905494774591
0.000714149013894664
4.22838679404493e-08
0.0029287200902776
0.000178673308804076
9.24522689878162e-08
0.00175727005884107
2.26014294098763e-08
0.000585865943577521
0.00071396132589947
0.00292884929518075
0.000178593908533338
0.00175759727032048
0.000585905495777501
-0.00168378937318162
-2.25859117922113e-07
-2.24093297157872e-07
0.000846235439695775
-0.000421538615632509
-3.96527601532722e-07
-3.94850972373808e-07
0.000507033368135937
-1.89683351863859e-07
-1.8805698822293e-07
0.000168363624206205
-0.001682601860951
2.25746984891171e-07
0.000845791159097717
-0.000421041780079443
3.96414474524798e-07
0.000506235096220068
1.89568421962597e-07
0.000168179830456293
-0.00168378915644537
-2.24096686625452e-07
0.000846235444607587
-0.000421538504196034
-3.94852963498738e-07
0.000507033370017165
-1.88057920181379e-07
0.000168363624804671
-0.00168260531889216
2.25521783557298e-07
0.000845791194362975
-0.000421043386204335
3.96337796791299e-07
0.000506235110563867
1.89616306542904e-07
0.000168179838554818
-0.00168379198370501
-2.25405547630599e-07
0.000846235436831106
-0.000421540001957821
-3.96222130489567e-07
0.000507033373699059
-1.89500006874223e-07
0.000168363625842444
-0.00168260555014267
0.000845791192868325
-0.000421043504107876
0.000506235108689199
0.00016817983846867
3.31860561473543e-06
1.23509303424831e-10
8.8129617535973e-11
8.49038393085076e-07
7.66036210701239e-11
4.18367926565376e-11
3.40406108249175e-11
-7.91341981092736e-13
3.31821406598779e-06
-1.21162222236574e-10
8.48942104630381e-07
-7.41785700247334e-11
-3.15301511028682e-11
3.31860120864958e-06
8.82507382601004e-11
8.49036005532951e-07
4.18842278568365e-11
-7.26343518751144e-13
3.31827887679089e-06
-1.19955387799502e-10
8.48974931123587e-07
-7.42585317238878e-11
-3.26579737645188e-11
3.31865755838631e-06
1.17404911096838e-10
8.49067318548066e-07
7.16937640981782e-11
3.00288523430794e-11
3.31828385972564e-06
8.4897755979848e-07
1.67954723448069e-05
0.000184254539469653
-3.05940490674978e-06
-3.05935249343732e-06
0.000268127162693801
-7.41397956438518e-05
2.80764177789716e-05
2.80766232117504e-05
0.000484649481186733
1.64801764134946e-05
7.6685891034673e-06
7.66858360816593e-06
0.000509386259428683
6.11245680873678e-05
5.85711456303984e-06
5.85731445150179e-06
0.000416490803858977
-0.00011592936234906
3.97223265330005e-05
3.9722371006621e-05
0.00048585357231841
-0.00125673878633991
8.22144672289543e-06
8.22116237440297e-06
0.000607955033786008
-0.00261524120543604
-1.11225761073849e-05
-1.11221194169632e-05
0.000350005862722343
-0.00222193577276543
-7.83839186843828e-06
-7.83803685664889e-06
6.9206108989554e-05
-0.000809018826534637
2.39474656563973e-06
2.39480711076821e-06
2.80904666294759e-06
-9.5179268006037e-05
6.87504960761765e-06
6.87495962216795e-06
1.9314359346362e-08
-2.71111974900766e-06
3.3143260669944e-07
3.3142981303993e-07
1.52256026796777e-11
-1.26293844598859e-08
1.98061402716977e-09
1.98059876751209e-09
-5.33061008528568e-14
-6.58928315556973e-12
1.06949941524465e-12
1.0694978431515e-12
-4.92875055005393e-14
1.33096658694321e-14
2.16428437671556e-15
2.15599023009605e-15
1.39148675221135e-14
3.30681662608079e-18
-1.24683249835833e-18
0.00023305730460129
4.79147103629508e-05
1.3342779925152e-05
1.33430960418337e-05
0.000545535278573397
-0.000371335506079967
4.03965069723945e-05
4.03968421970791e-05
0.000644731630234164
-7.37621407433625e-05
2.13252207483017e-05
2.13254684554431e-05
0.00064701297885165
9.59993149928883e-05
-1.53623394151588e-05
-1.53624144441919e-05
0.000479569956888102
2.02872820971885e-05
-4.59730130943745e-06
-4.59740496212266e-06
0.000427490384932936
-0.000615226999198503
2.78666645529656e-06
2.78617854852808e-06
0.00061039546187258
-0.001748328878512
-2.3215424630169e-06
-2.32171988639041e-06
0.000544826518617868
-0.00159935147557436
-3.80651264333611e-05
-3.80652828670067e-05
0.000212085700992175
-0.000819858468308031
-3.61910296297667e-05
-3.61910107120626e-05
1.31419177530108e-05
-0.000134233445491109
-5.62388811315947e-07
-5.62342058813524e-07
1.12780795252375e-07
-5.60044995803364e-06
3.94984837879403e-07
3.94987179637375e-07
1.06820128914151e-10
-3.52665952326608e-08
1.47801379821047e-09
1.47808935625987e-09
-3.28241123517814e-14
-2.38764019406396e-11
-5.34599166150673e-13
-5.34476976565834e-13
-3.63088465543671e-14
-5.0784029759221e-16
4.02130585774874e-16
4.14111019780838e-16
4.61284656305683e-15
5.4752209710518e-18
4.87890977618477e-18
0.00039927606084869
-0.000393534704311238
4.52734411304739e-05
4.52738853246676e-05
0.00058456024478337
-0.000452824979776035
-1.76101632261788e-05
-1.7609836959914e-05
0.000647343371573144
-6.60057271304989e-05
-1.06452387898434e-05
-1.06449006312915e-05
0.000633997464921187
9.45915440621933e-05
-1.64748612750844e-07
-1.65608839830679e-07
0.000564491284378488
7.61916448646291e-05
6.73307561114186e-06
6.73297608510184e-06
0.00053916522702534
-0.000232449337446455
2.48157089697746e-05
2.48154763943033e-05
0.00069962828387524
-0.000910140915343341
1.0169831586798e-05
1.01692330353892e-05
0.000763516671148783
-0.00100039581443454
-2.12408514179381e-05
-2.12395637470121e-05
0.000337999373620288
-0.00068983800070853
-3.57738421063659e-05
-3.57736866436674e-05
2.87561866691427e-05
-0.000141632590331819
-2.93004107424882e-06
-2.93017484788612e-06
2.98729147807809e-07
-7.61666588775596e-06
5.17675638942589e-07
5.17680333099598e-07
3.26925000309133e-10
-5.96878596424624e-08
1.33709746047558e-09
1.3372493800224e-09
8.47228103645348e-15
-4.79117234167964e-11
-2.6528043000143e-12
-2.6525742323133e-12
-1.74561970781029e-14
-4.6670566716811e-15
-3.62990887348147e-16
-3.57732506811592e-16
1.64451785522601e-15
-2.86934104948289e-16
-2.98101387324889e-16
0.000335812146431509
5.64264770671242e-05
5.64266674870574e-05
-0.000728751577963368
0.000325200378068724
-3.28739689437784e-05
-3.28737417130655e-05
-0.000345038465531063
0.000448216675346923
-2.40143103221983e-05
-2.40140174442355e-05
-0.000107768962658126
0.000525641259628174
-1.87738015703516e-05
-1.87734633299839e-05
4.73065191656045e-05
0.000537007536367622
7.17841197102445e-06
7.17838986182077e-06
7.3921837723089e-05
0.000608947970203994
-1.73472821505331e-05
-1.73474839684879e-05
-2.70600892555575e-05
0.000746348607739313
-2.06121263201705e-05
-2.06129502107878e-05
-0.000243865082661659
0.000780162981062201
-3.87684597007566e-05
-3.87686823143075e-05
-0.000438428307996447
0.00036451481548951
-3.12664009988219e-05
-3.12662842363392e-05
-0.00036475800005197
4.15429624105496e-05
-1.06094807614272e-05
-1.06094121225138e-05
-9.95360092467895e-05
5.38743650135463e-07
4.67366673433947e-07
4.67371410671675e-07
-6.6908710877158e-06
6.86080353065523e-10
5.32313874620008e-10
5.32502291881402e-10
-6.7098904674677e-08
6.83022974116987e-14
-4.72395191540576e-12
-4.7236963689537e-12
-6.51034470474168e-11
-1.04375058943007e-14
-2.47902826738811e-16
-2.54624880208221e-16
-7.04124258898986e-15
-1.74448129552918e-16
-1.85994882689888e-16
7.97105437211343e-16
0.0002184990779889
2.24625740026887e-06
3.05940712912105e-06
0.00045847685852
-0.000248968237374961
-2.80764248112633e-05
0.000640363179044226
-7.29493173941686e-05
-7.66858048059031e-06
0.000651623816449357
0.000151656375807413
-5.85712009327084e-06
0.000569718769204872
-8.3395025227364e-05
-3.97223287544259e-05
0.000563042315304876
-0.00118678220708232
-8.22143765794628e-06
0.000618965584541574
-0.00226195483920695
1.11225681752835e-05
0.000403454268100508
-0.00184353389364872
7.8383769066923e-06
0.000105143765459515
-0.000720576619015588
-2.3947567002712e-06
8.00721493427045e-06
-0.000112492819300434
-6.87505136539061e-06
1.05340518711887e-07
-5.3542731223682e-06
-3.31432589937241e-07
1.33901966663068e-10
-4.28482325180897e-08
-1.98061406977892e-09
-4.06400173930122e-14
-3.44690760309407e-11
-1.06949908998399e-12
-4.72338097454172e-14
1.43470305080662e-14
-2.15805021422377e-15
1.29288940664551e-14
-1.78893358460108e-18
0.000389465199567598
-0.000217327431078949
-1.3342796558717e-05
0.000657283271493168
-0.000328674510116089
-4.03965259964352e-05
0.000701850238063789
-3.52364079739628e-05
-2.13252263141424e-05
0.000650440502912894
0.000155916182185861
1.53623519064051e-05
0.000506625546666698
5.59514433564988e-05
4.59731103462472e-06
0.000497797716412032
-0.000562365209098224
-2.78664239505329e-06
0.000617481391308886
-0.00169670912930214
2.32158330014219e-06
0.000404670623096385
-0.00151525322792872
3.80651405921813e-05
0.000170798036301269
-0.000669389878541258
3.61910352087031e-05
2.26994104987467e-05
-0.000122683175134127
5.62387747068515e-07
3.98782056286245e-07
-7.18906881739092e-06
-3.94984754132103e-07
5.91977383779252e-10
-6.94058388860455e-08
-1.47801303693792e-09
2.13530365264503e-14
-6.79634868348822e-11
5.34598190368718e-13
-2.87712562108133e-14
-1.73797608249426e-15
-3.99094819691914e-16
4.36651582946812e-15
-3.84891771232354e-18
0.000550461230618603
-0.000576401964252977
-4.52734902548116e-05
0.00066224901813213
-0.000405296794014226
1.76101290280187e-05
0.000645612899326826
-4.2952830360207e-06
1.06452138042413e-05
0.000607435230846544
0.000151944630357685
1.64846065379791e-07
0.000544212165227993
8.79826915777467e-05
-6.73306867724963e-06
0.00058796692608916
-0.000184520307865191
-2.48157935605386e-05
0.000688120639282705
-0.000893778631796081
-1.01698335385517e-05
0.000590268222174686
-0.00100307103832157
2.12408817017729e-05
0.000259791299478064
-0.000597194190412364
3.57738521616038e-05
3.54865039675806e-05
-0.000118711794235884
2.93002999477294e-06
6.6641357045899e-07
-8.01397533479824e-06
-5.17675521795303e-07
1.09182321820708e-09
-8.51797339173482e-08
-1.33709580115837e-09
1.0969578110448e-13
-8.71582576077168e-11
2.65280316160202e-12
-1.54835996454827e-14
-9.12399496233451e-15
3.64291929955129e-16
2.21220611273942e-15
2.85145171363688e-16
0.00049769295293538
-5.64264923122589e-05
-0.000822735071413781
0.00045826423126727
3.2873945917818e-05
-0.000391953323036765
0.000483032385291217
2.40142825799079e-05
-4.59667980413087e-05
0.000500836015148926
1.87737721037896e-05
7.9910133350857e-05
0.000509272970345024
-7.17840282252137e-06
0.000104195121738434
0.000550983496022866
1.73472909824992e-05
-5.26077580688428e-05
0.000641450612887983
2.06121694516036e-05
-0.000403146385993582
0.000650327201620061
3.87684863936154e-05
-0.000590820019401033
0.000305120003505921
3.12664189146867e-05
-0.000395176900889583
4.42267276634297e-05
1.06094801115263e-05
-8.21089055430652e-05
8.72876932636005e-07
-4.6736656190272e-07
-5.65889709950099e-06
1.47603365001445e-09
-5.32311471648523e-10
-6.67820044950767e-08
1.75846370884664e-13
4.72395115646423e-12
-7.61765956303756e-11
-1.12843762112291e-14
2.49583340106163e-16
-8.16078975229839e-15
1.73038666728687e-16
1.16768573976689e-15
1.67954136399386e-05
0.000184254597132513
-3.05935406184695e-06
0.000268127015359844
-7.4139657449879e-05
2.80766004326196e-05
0.000484649319038283
1.64802585238008e-05
7.66854789812716e-06
0.000509386129550943
6.11245892028851e-05
5.85729572548458e-06
0.00041649072348809
-0.000115929423429969
3.97223656444525e-05
0.000485853523154986
-0.00125673882216109
8.22116386438337e-06
0.000607954948009171
-0.00261524145665849
-1.11221288385186e-05
0.000350005787730439
-0.00222193577284557
-7.83803476479014e-06
6.92060758847417e-05
-0.000809018787357848
2.39481529086045e-06
2.8090455487695e-06
-9.51792546458226e-05
6.87496442983816e-06
1.93143615678923e-08
-2.71111945249333e-06
3.31429893856794e-07
1.52256232795189e-11
-1.26293853311508e-08
1.98059934468711e-09
-5.33054503315533e-14
-6.5892842397719e-12
1.06949887314356e-12
-4.92860960377151e-14
1.33001248903142e-14
2.15067763945087e-15
1.39027244577816e-14
-1.73472347597681e-18
0.000233057207877139
4.79148332956708e-05
1.33430982344476e-05
0.00054553512089945
-0.000371335320533815
4.03968378317617e-05
0.000644731510580839
-7.37620837972848e-05
2.13254564659879e-05
0.000647012869021781
9.59993015408089e-05
-1.53624203237344e-05
0.00047956982171114
2.02872473440104e-05
-4.59740484979606e-06
0.000427490310750684
-0.000615226974764545
2.78618004776707e-06
0.000610395481128411
-0.00174832888334941
-2.32174436211601e-06
0.000544826511022979
-0.00159935156774719
-3.8065286542719e-05
0.000212085655053789
-0.000819858489958839
-3.61910161555184e-05
1.31419128945797e-05
-0.000134233442361168
-5.62342524929114e-07
1.12780774478411e-07
-5.60044938566011e-06
3.94987017825839e-07
1.06820155693944e-10
-3.52665938385937e-08
1.4780859762596e-09
-3.28221607878709e-14
-2.38763952185861e-11
-5.34477952347789e-13
-3.63070034106738e-14
-5.15212872365112e-16
4.12267876087613e-16
4.60157086046298e-15
4.01154803819637e-18
0.000399275997024129
-0.000393534566444491
4.52739042197116e-05
0.000584560176586407
-0.000452824863168001
-1.76098267203447e-05
0.000647343254733105
-6.60056748005303e-05
-1.0644898990628e-05
0.000633997370215935
9.45916033640642e-05
-1.65636181420636e-07
0.00056449115818601
7.61916429017259e-05
6.73297663614884e-06
0.000539165072090818
-0.000232449337043987
2.48155292551828e-05
0.000699628223996579
-0.000910140933486001
1.01692611071495e-05
0.000763516652469252
-0.00100039591473487
-2.12396381506022e-05
0.000337999362874141
-0.00068983806363252
-3.57737009776946e-05
2.87561803104092e-05
-0.000141632590658089
-2.93016005551062e-06
2.98729089442712e-07
-7.6166655047095e-06
5.17680057240022e-07
3.26925012560618e-10
-5.96878572554829e-08
1.33724244270059e-09
8.47325681840871e-15
-4.79117216820729e-11
-2.65257954490394e-12
-1.74555465567994e-14
-4.67074295906755e-15
-3.59413020178945e-16
1.63931368479808e-15
-2.99077169280126e-16
0.000335812151001683
5.64266649928165e-05
-0.000728751451294594
0.000325200411025387
-3.28737373485097e-05
-0.000345038426173618
0.000448216661994079
-2.40140097880258e-05
-0.00010776892166289
0.000525641191519635
-1.87734562283783e-05
4.73065747353351e-05
0.000537007448482201
7.17838379639884e-06
7.39218905547154e-05
0.000608947896656791
-1.73474807772423e-05
-2.70600885252045e-05
0.000746348613981869
-2.06129608156433e-05
-0.000243865112572858
0.000780162988732535
-3.87686943949617e-05
-0.000438428389078178
0.000364514805669475
-3.12663030701158e-05
-0.000364758065910789
4.15429558985707e-05
-1.06094136942284e-05
-9.95360200332372e-05
5.3874356897675e-07
4.67371142420434e-07
-6.69087146033364e-06
6.86080350517648e-10
5.32493374698004e-10
-6.70989051446786e-08
6.83019721510469e-14
-4.72370417520934e-12
-6.51034457463742e-11
-1.04369637932145e-14
-2.58690638355041e-16
-7.04319415290033e-15
-1.87838026383114e-16
7.96238075473354e-16
0.000218499788465729
2.24533231870695e-06
3.0593924045189e-06
0.000458477977839943
-0.000248969924651156
-2.80764780359014e-05
0.000640364563233556
-7.29502774938261e-05
-7.66894645555277e-06
0.000651625195599053
0.000151656420754356
-5.85718780507413e-06
0.000569719471889313
-8.33945404318812e-05
-3.97222881153724e-05
0.000563043804433817
-0.00118678025466112
-8.22132425597584e-06
0.000618968298852795
-0.00226195896948664
1.11222452291323e-05
0.000403453899333256
-0.00184353952698627
7.83839430038707e-06
0.000105141770443318
-0.000720572869683245
-2.39453053668345e-06
8.00705852492273e-06
-0.000112492235762652
-6.87491049308682e-06
1.05338513704074e-07
-5.35421594778976e-06
-3.3143047996917e-07
1.33899196201256e-10
-4.28474769089728e-08
-1.9806001683555e-09
-4.06244048817284e-14
-3.4468250736247e-11
-1.06949719263019e-12
-4.72174382926127e-14
1.42030484595601e-14
-2.12454836709397e-15
1.29076437038744e-14
4.82469966756049e-18
0.000389465795628825
-0.000217328703464987
-1.33426705963445e-05
0.000657284111675769
-0.000328676380273314
-4.03965622625791e-05
0.000701851252678471
-3.52374600678612e-05
-2.13252647136753e-05
0.000650441189660584
0.000155916099777233
1.5362446380026e-05
0.000506626090303132
5.59519390565429e-05
4.5974517711955e-06
0.000497797652661186
-0.000562364766795198
-2.7864943915995e-06
0.000617483044863721
-0.00169671025218605
2.32093349241492e-06
0.000404672098631696
-0.00151525584044878
3.80649729239815e-05
0.000170798849414884
-0.000669390762495072
3.61908535922839e-05
2.26991757421673e-05
-0.000122683023516938
5.62371749597535e-07