/*--------------------------------*- C++ -*----------------------------------*\
  =========                 |
  \\      /  F ield         | OpenFOAM: The Open Source CFD Toolbox
   \\    /   O peration     | Website:  https://openfoam.org
    \\  /    A nd           | Version:  11
     \\/     M anipulation  |
\*---------------------------------------------------------------------------*/
FoamFile
{
    format      ascii;
    class       volScalarField;
    location    "0.0000700081";
    object      rho;
}
// * * * * * * * * * * * * * * * * * * * * * * * * * * * * * * * * * * * * * //

dimensions      [1 -3 0 0 0 0 0];

internalField   nonuniform List<scalar> 
900
(
1.39335595338839
1.38529172957025
1.37923751356146
1.39377002159648
1.38566968821031
1.37944936793726
1.39389014402438
1.38599868372045
1.3795763790473
1.39335566658431
1.38529208544305
1.37923749089865
1.39376929990732
1.38566982885335
1.37944961184414
1.39389025445189
1.38599871656456
1.37957628440513
1.39335595018716
1.38529173421246
1.37923751405214
1.39377001949652
1.38566969174167
1.37944936915259
1.39389014241327
1.38599868395651
1.37957637994379
1.3933556728793
1.38529207263428
1.37923747089131
1.39376931634576
1.38566981185714
1.37944960130446
1.39389026149027
1.38599870478992
1.37957628006706
1.39335597779078
1.38529170444156
1.37923750561031
1.39377003584436
1.38566966607638
1.3794493508576
1.39389015976875
1.38599867559386
1.37957637158855
1.39335567540623
1.38529207148402
1.37923747020399
1.39376931870469
1.38566981135074
1.37944960164289
1.39389026256459
1.3859987041237
1.3795762787152
1.37664898938156
1.37583627939765
1.37917504822621
1.37685757474677
1.37598976163628
1.37927812535509
1.37699596103849
1.37608154324299
1.3792820227599
1.37664941566656
1.37583481016942
1.3791775431157
1.37685850770521
1.3759878792408
1.37928006083505
1.37699581357766
1.37608130610905
1.37928243327991
1.3766490055245
1.37583628039824
1.37917512923396
1.37685759112198
1.37598975690167
1.3792782122654
1.37699596575958
1.37608153947468
1.37928204783513
1.37664936992425
1.37583476454421
1.37917733059233
1.37685848505024
1.37598779404805
1.37927985245052
1.37699575386883
1.37608127865898
1.37928241697349
1.37664882618557
1.37583618274972
1.37917445448078
1.37685742088468
1.37598974585842
1.37927748917962
1.3769959236318
1.37608152883802
1.37928186549865
1.37664936702849
1.37583478328674
1.37917730247888
1.3768584823067
1.37598780541526
1.37927982339359
1.37699574678892
1.37608128185192
1.37928241269645
1.38731327810834
1.38737780885722
1.38740909204868
1.3873151796177
1.38737838160865
1.38740922837101
1.38731330360002
1.38737784285661
1.38740910541894
1.38731513028199
1.38737833182849
1.38740918966515
1.38731321647539
1.38737772358492
1.38740902077073
1.38731512234542
1.38737832401531
1.38740917946917
1.39132285775051
1.39135094928636
1.39136275407101
1.3913305072596
1.39135456610962
1.39136290375589
1.39132295247781
1.39135102534248
1.39136276914935
1.3913303889875
1.39135447959611
1.39136287884214
1.3913222776086
1.39135050886864
1.39136266766926
1.39133037148389
1.39135446306733
1.39136287455051
1.38765172359443
1.38765843088477
1.3876605977617
1.38765696093126
1.38766219152821
1.38766194307286
1.38765173718018
1.38765844404012
1.38766059910753
1.3876568647249
1.38766214083426
1.38766194352777
1.38765160398662
1.38765834140508
1.38766059898167
1.38765684869811
1.38766212881162
1.38766194108601
1.37035868494897
1.37035356778192
1.37035376258192
1.3703641919869
1.37035916401925
1.37035491024831
1.37035868402406
1.37035356519906
1.37035375982816
1.37036413513707
1.37035914919551
1.37035490690517
1.37035870823929
1.37035359750525
1.37035379040535
1.37036411833329
1.3703591420129
1.37035490424822
1.3417757523422
1.34188207945886
1.34190322256542
1.34179440487171
1.34186242001247
1.3418964011324
1.34177574901818
1.34188207685857
1.34190322088495
1.34179431231071
1.34186234283738
1.34189636988936
1.34177572634321
1.34188205686831
1.34190321397533
1.34179429764856
1.34186233340682
1.34189636665722
1.29849267000028
1.29783601657269
1.29761043630418
1.29851215798936
1.29800036846358
1.29759716021066
1.29849267636277
1.29783601892442
1.29761043973237
1.2985122215289
1.29800042114735
1.29759716363379
1.29849266986271
1.29783603329681
1.29761044417358
1.29851221160845
1.29800041215408
1.29759716242835
1.24536643668181
1.24531780278957
1.24574310437084
1.2451303599477
1.24538926576427
1.24577397439184
1.24536644425626
1.24531780706281
1.24574310739424
1.24513040718299
1.2453892936569
1.24577398627719
1.24536640124893
1.245317767198
1.24574308539085
1.24513040846409
1.24538929346783
1.24577398737657
1.15768099519395
1.1590060534333
1.16122559487851
1.15803315754312
1.15952682124068
1.1613878977301
1.15768100186527
1.15900605714418
1.1612255951327
1.15803318316685
1.15952684755721
1.16138790359473
1.15768095848016
1.15900603396019
1.16122559461841
1.15803318147332
1.15952684702003
1.1613879040997
1.41817299040428
1.41864544424449
1.4187360822173
1.41817302142298
1.41864536319366
1.41873610875182
1.41817299033856
1.41864544431949
1.41873608218965
1.41817302168256
1.41864536496273
1.41873610848141
1.41817299170029
1.41864544308299
1.41873608299164
1.41817302174201
1.41864536509364
1.41873610847117
0.597791017084934
0.677669658431341
0.683362395269751
0.65088735181691
0.622596468312511
0.879120019962714
1.25953888207358
1.32934307211638
1.21873758558089
1.1479497953221
1.13826568366341
1.13796379236017
1.13796222756434
1.13796222657867
1.13796222657643
0.485296297291483
0.360363063156547
0.38199505426413
0.385291725449293
0.389660864585375
0.528437380140546
1.05752022253066
1.44041094792505
1.38697272915824
1.1899250925702
1.14007618916193
1.13797534844075
1.13796223578518
1.13796222659161
1.13796222658426
0.282194086683246
0.188429925320845
0.23443138286494
0.25308772641946
0.256985335486995
0.364486037570691
0.906125398025618
1.46082340211466
1.51649540569524
1.24314472271141
1.14341547696509
1.1380031401095
1.13796226039401
1.137962226593
1.13796222658562
0.154949527292368
0.103777109056681
0.131592332077799
0.181466166998302
0.207984471928596
0.329238696719906
0.764869356679537
1.40534901696078
1.60525813931991
1.30448495075614
1.14889187678254
1.13806115313506
1.13796232073982
1.13796222659928
1.13796222658732
0.748665646538085
0.605920991643828
0.573766573187033
0.584685250752719
0.682557214220869
0.970222598393718
1.30352876979933
1.3815122199247
1.25498496200847
1.16017018862502
1.13911438397718
1.13797200816549
1.1379622350722
1.1379622265797
1.13796222657636
0.589955161741535
0.446835864375523
0.433916204876584
0.442215910982331
0.45938734863837
0.593566601424986
1.04439166046441
1.32221308566004
1.3121396398737
1.19739938863316
1.14228048696218
1.13800664343623
1.13796227078947
1.13796222659445
1.13796222658466
0.351970484201934
0.278989532086308
0.298606444303342
0.297632991085969
0.290462070739037
0.395819478164752
0.870350657797654
1.37270771486231
1.43382941340675
1.24405720288684
1.14626944325361
1.13805508100867
1.13796232894534
1.13796222659921
1.13796222658636
0.242256000640363
0.178995100202696
0.187250850382734
0.209336421833793
0.222407437151741
0.320871588105939
0.675988090749074
1.27066889241507
1.51212881479768
1.29469891441193
1.15182043927743
1.13812708934705
1.13796241602113
1.13796222660936
1.13796222658762
0.597790973023417
0.677669662257864
0.683362406421286
0.650887394786578
0.622596530623768
0.879120060713927
1.25953885168939
1.32934301681953
1.21873754376873
1.14794978987416
1.13826568358784
1.13796379236073
1.13796222756434
1.13796222657868
1.13796222657643
0.485296294446275
0.360363089269038
0.381995080808014
0.385291772223924
0.389660888499158
0.528437404359417
1.05752027474269
1.44041097052246
1.38697270778196
1.18992507939507
1.14007618868428
1.13797534844059
1.13796223578518
1.13796222659161
1.13796222658427
0.282194111941265
0.188429947037219
0.234431396176149
0.253087738924152
0.256985336115497
0.364486031891132
0.906125392518986
1.46082338985572
1.51649539317669
1.24314470829298
1.14341547604752
1.13800314010662
1.13796226039402
1.13796222659301
1.13796222658562
0.154949537655768
0.103777127125015
0.131592346727765
0.181466174008433
0.207984463723995
0.329238682220768
0.764869368565595
1.40534902101715
1.6052581342826
1.30448493509446
1.14889187543026
1.13806115312845
1.13796232073983
1.13796222659928
1.13796222658732
0.748665062868458
0.605919950948841
0.573765825707536
0.584685016313765
0.682557668498069
0.970223651858467
1.30353039010912
1.38151233117699
1.25498352765506
1.16016983801183
1.13911436450846
1.13797200798407
1.13796223507195
1.13796222657962
1.13796222657632
0.58995500048194
0.446835193866444
0.433915673089723
0.442215705294451
0.459387806972762
0.593566629209346
1.04439226171571
1.32221406879788
1.31214080667947
1.19739925904189
1.14228044543045
1.13800664277587
1.13796227078862
1.13796222659437
1.13796222658462
0.351970599002432
0.278989228661958
0.298606235550441
0.297632886720346
0.29046228908725
0.395819409100441
0.870351140520349
1.37270882222838
1.43383017906735
1.24405703614465
1.146269393324
1.13805508014846
1.13796232894422
1.13796222659919
1.13796222658634
0.242256354212946
0.178994810275097
0.18725071619905
0.209336464189975
0.22240755957248
0.320871743718285
0.675988730748674
1.27067005037956
1.51212967941579
1.29469881376049
1.15182039087075
1.13812708846633
1.13796241602008
1.13796222660936
1.13796222658761
0.597791336097506
0.67766966381837
0.683362172264294
0.650886592046558
0.62259496838864
0.879118537449785
1.25953901773772
1.32934415064715
1.21873866359164
1.14794995421054
1.13826568642012
1.13796379234914
1.13796222756439
1.13796222657876
1.13796222657648
0.485296180955003
0.360362849395122
0.381994891885754
0.385291285218233
0.389660380402122
0.528436788329946
1.05751901412709
1.44041020481666
1.38697314928091
1.18992544536291
1.14007620372127
1.13797534846309
1.13796223578517
1.1379622265917
1.13796222658431
0.282193599951345
0.188429634138179
0.234431184325936
0.253087609404926
0.25698526790954
0.36448619406222
0.906125700607584
1.46082365111624
1.5164955756826
1.24314509490252
1.14341550382939
1.13800314022418
1.13796226039397
1.13796222659303
1.13796222658564
0.154949318584004
0.103776846009827
0.131592074366029
0.181466027086187
0.207984577804561
0.329238963246351
0.764869032439471
1.40534895555026
1.60525814922931
1.30448533982533
1.14889191455996
1.13806115336369
1.13796232073975
1.13796222659928
1.13796222658733
0.748665076230761
0.605919870570454
0.573765758927686
0.584684986249242
0.68255767158246
0.970223700617962
1.30353046620305
1.38151235126841
1.25498348338517
1.16016982606721
1.13911436381209
1.13797200797745
1.13796223507194
1.13796222657962
1.13796222657632
0.589955000327621
0.446835143926012
0.433915624056236
0.442215679345568
0.459387824778388
0.593566624210494
1.04439227480893
1.32221410864237
1.31214085084586
1.19739925484839
1.14228044394575
1.1380066427519
1.13796227078859
1.13796222659437
1.13796222658462
0.35197060151396
0.278989207994972
0.298606222936322
0.297632873391879
0.290462297431341
0.395819412302646
0.870351148194727
1.37270886136354
1.43383020999644
1.2440570314611
1.14626939158819
1.1380550801172
1.13796232894418
1.13796222659919
1.13796222658634
0.242256377984033
0.178994789032542
0.187250709640906
0.209336468857748
0.222407567214185
0.320871756541451
0.675988756120081
1.27067008783293
1.51212971122832
1.29469881166877
1.15182038926581
1.13812708843488
1.13796241602005
1.13796222660936
1.13796222658761
0.442582502255766
0.150937660052177
0.108152040053144
0.143994737873583
0.194089332654438
0.325752179411182
0.665469151184656
1.2836218863825
1.62938935232737
1.35107636215882
1.15479203873384
1.13813938163053
1.13796241461689
1.13796222661006
1.13796222658823
0.606669536368542
0.220139586203258
0.117396451027868
0.130427928223763
0.190344051036281
0.333701029135798
0.647244069948925
1.23581369093854
1.62440256963304
1.37175954974566
1.1591647388263
1.13821238998808
1.13796251658018
1.13796222662255
1.1379622265886
0.708959030286291
0.29094244641616
0.125506289628311
0.129093844166029
0.192576431328669
0.343258601802757
0.625886642446881
1.16231260335168
1.59640519923177
1.38222029217557
1.16272754955286
1.13828009770266
1.13796261487041
1.13796222663499
1.13796222658876
0.518368766253934
0.231688772856269
0.140971205557914
0.164980649028672
0.197994200206913
0.323248696636591
0.598142540025182
1.1962555253978
1.56204395153605
1.33468056593484
1.15687290214864
1.13819835363749
1.13796250655261
1.13796222662033
1.13796222658832
0.667732929217563
0.284533407795879
0.139354342829143
0.146122991988208
0.189599233086782
0.332272186798697
0.587676159859013
1.1358202464973
1.56007056055957
1.36221921103444
1.16061595155541
1.13825042558881
1.13796257190769
1.13796222662868
1.13796222658866
0.734758724126138
0.322487146890679
0.134045109053693
0.135581495633632
0.191945081932298
0.34247324679657
0.613070637947461
1.16484118273722
1.60065786037831
1.3830350273467
1.16274077596519
1.13827960134964
1.137962613512
1.13796222663417
1.13796222658879
0.442582469857175
0.150937647673008
0.108152045384465
0.143994742799941
0.194089326467293
0.325752158666484
0.665469141054191
1.28362188778442
1.6293893521574
1.3510763505373
1.15479203746081
1.13813938162384
1.1379624146169
1.13796222661005
1.13796222658823
0.60666951066872
0.220139570079312
0.117396453236051
0.13042793273203
0.190344037879321
0.333701012758011
0.647244060430415
1.23581368495093
1.62440256506977
1.37175954210374
1.15916473798966
1.13821238998544
1.13796251658019
1.13796222662255
1.1379622265886
0.708959019446531
0.29094243529071
0.12550629163143
0.129093845824553
0.192576426471351
0.343258595907458
0.625886638302577
1.16231260083334
1.59640519777517
1.38222028921416
1.16272754934373
1.13828009770408
1.13796261487042
1.13796222663499
1.13796222658876
0.518369246942359
0.231688840208795
0.140971053750871
0.164980666143025
0.197994383089149
0.323248866680313
0.598143046407133
1.19625642451879
1.56204476684362
1.33468054697868
1.15687286462716
1.13819835295039
1.13796250655188
1.13796222662034
1.13796222658832
0.667733198428554
0.284533616599993
0.139354371844396
0.146122987846467
0.189599512847022
0.332272430506431
0.587676573388956
1.13582062582832
1.56007082856658
1.36221923201351
1.16061593281101
1.13825042521996
1.13796257190729
1.13796222662868
1.13796222658866
0.734758815831326
0.322487310017545
0.134045047585086
0.135581477810696
0.191945196845838
0.342473344021482
0.613070536944574
1.16484122927168
1.60065793873094
1.38303506864366
1.16274077424473
1.13827960120515
1.13796261351179
1.13796222663417
1.13796222658878
0.44258288855495
0.150937789877053
0.108151921042945
0.143994636158128
0.194089427392589
0.325752495451513
0.665469248929327
1.2836218254436
1.62938923669302
1.35107663843554
1.15479207344042
1.13813938186013
1.1379624146168
1.13796222661004
1.13796222658823
0.606669843350928
0.22013975524245
0.11739641801616
0.130427859363275
0.190344263784857
0.333701282139559
0.647244187669815
1.2358137859033
1.62440259173404
1.37175972311501
1.15916476096753
1.13821239009347
1.13796251658006
1.13796222662254
1.1379622265886
0.708959159654478
0.290942574595816
0.12550624975703
0.129093814966021
0.192576505073303
0.343258700733195
0.625886659034951
1.16231262824875
1.59640520909368
1.38222036063192
1.16272755415072
1.13828009766832
1.13796261487028
1.13796222663499
1.13796222658877
0.518369284884867
0.231688846706811
0.140971044748994
0.164980669683073
0.197994394502917
0.323248882167011
0.59814307251117
1.1962564545087
1.56204479565572
1.33468054743916
1.15687286343343
1.13819835292638
1.13796250655186
1.13796222662034
1.13796222658832
0.667733221091418
0.284533634172261
0.139354373519267
0.14612298810843
0.189599530177367
0.332272449615196
0.587676594616028
1.13582064037114
1.56007083814223
1.3622192334235
1.16061593225102
1.13825042520724
1.13796257190727
1.13796222662868
1.13796222658866
0.73475882384657
0.322487323954891
0.13404504482495
0.135581476725897
0.191945204157813
0.342473350563912
0.61307053590699
1.16484123313551
1.60065794322384
1.38303507060464
1.16274077421842
1.13827960119981
1.13796261351179
1.13796222663416
1.13796222658878
)
;

boundaryField
{
    inlet
    {
        type            calculated;
        value           nonuniform List<scalar> 
24
(
1.41862933535888
1.41862933535888
1.41862933535888
1.41862933535888
1.41862933535888
1.41862933535888
1.41862933535888
1.41862933535888
1.41862933535888
1.41862933535888
1.41862933535888
1.41862933535888
1.41862933535888
1.41862933535888
1.41862933535888
1.41862933535888
1.41862933535888
1.41862933535888
1.41862933535888
1.41862933535888
1.41862933535888
1.41862933535888
1.41862933535888
1.41862933535888
)
;
    }
    outlet
    {
        type            calculated;
        value           nonuniform List<scalar> 
156
(
0.660473094263361
1.02453454142535
1.02854827904346
1.01152607975479
0.689422228731877
0.808692880134511
1.00375897652501
1.08167316243836
1.10991929885924
1.13314975829756
1.1378060219657
1.13796153247505
1.13796222631605
1.13796222657809
1.13796222657484
0.905422138554294
0.618700900132858
0.597210683988093
0.621089880677595
0.696970495230267
0.856038694392239
1.04653146122421
1.09134430818962
1.105962184917
1.12892568324757
1.13751660975565
1.13795954732507
1.1379622253746
1.13796222657856
1.13796222657474
0.660473022790725
1.02453439635737
1.02854817220025
1.01152602593964
0.689422316055283
0.808692939890318
1.0037589828654
1.0816731664179
1.10991930894002
1.13314976004513
1.13780602197953
1.13796153247479
1.13796222631604
1.1379622265781
1.13796222657484
0.905422040022742
0.618699931834919
0.597209864645797
0.621089438965626
0.696970579208061
0.856038528999026
1.04653070191698
1.09134398170008
1.10596232041494
1.12892578373792
1.13751661598858
1.1379595473672
1.13796222537454
1.13796222657855
1.13796222657474
0.660473720065566
1.02453589421149
1.02854894522323
1.01152609363496
0.689420515223041
0.808691751164641
1.00375906881912
1.08167314754034
1.10991902867354
1.13314970618957
1.13780602133434
1.13796153248119
1.13796222631614
1.13796222657809
1.13796222657485
0.905422113164913
0.618699849907343
0.59720979371259
0.621089388485546
0.696970550522935
0.856038499817543
1.04653066602452
1.09134396859602
1.10596232517108
1.12892578730299
1.13751661621214
1.13795954736872
1.13796222537454
1.13796222657855
1.13796222657473
1.13796222656584
1.13796222657296
1.13796222657482
1.13796222657715
1.13796222657847
1.13796222657902
1.13796222657928
1.1379622265657
1.13796222657346
1.13796222657588
1.13796222657764
1.13796222657866
1.13796222657913
1.13796222657931
1.13796222656584
1.13796222657296
1.13796222657482
1.13796222657715
1.13796222657846
1.13796222657902
1.13796222657928
1.13796222656572
1.13796222657345
1.13796222657588
1.13796222657765
1.13796222657867
1.13796222657914
1.13796222657931
1.13796222656582
1.13796222657297
1.13796222657481
1.13796222657714
1.13796222657846
1.13796222657901
1.13796222657928
1.13796222656572
1.13796222657345
1.13796222657588
1.13796222657765
1.13796222657867
1.13796222657914
1.13796222657931
0.751155480339774
0.626336947192357
0.502184978840696
0.497258591023622
0.883814712497619
0.955075404313869
0.857496560579211
0.87677632593877
0.751155416985164
0.626336898700515
0.502184949253756
0.497258619745112
0.883814232600384
0.955075642927549
0.857496712801509
0.876777123150566
0.751155869497696
0.62633720179725
0.502184945186735
0.497257968452709
0.883814252518413
0.955075702849922
0.85749673131555
0.876777181102499
)
;
    }
    sides
    {
        type            calculated;
        value           nonuniform List<scalar> 
84
(
1.39335595338839
1.38529172957025
1.37923751356146
1.39335566658431
1.38529208544305
1.37923749089865
1.39335595018716
1.38529173421246
1.37923751405214
1.3933556728793
1.38529207263428
1.37923747089131
1.39335597779078
1.38529170444156
1.37923750561031
1.39335567540623
1.38529207148402
1.37923747020399
1.37664898938156
1.37583627939765
1.37917504822621
1.37664941566656
1.37583481016942
1.3791775431157
1.3766490055245
1.37583628039824
1.37917512923396
1.37664936992425
1.37583476454421
1.37917733059233
1.37664882618557
1.37583618274972
1.37917445448078
1.37664936702849
1.37583478328674
1.37917730247888
1.38731327810834
1.3873151796177
1.38731330360002
1.38731513028199
1.38731321647539
1.38731512234542
1.39132285775051
1.3913305072596
1.39132295247781
1.3913303889875
1.3913222776086
1.39133037148389
1.38765172359443
1.38765696093126
1.38765173718018
1.3876568647249
1.38765160398662
1.38765684869811
1.37035868494897
1.3703641919869
1.37035868402406
1.37036413513707
1.37035870823929
1.37036411833329
1.3417757523422
1.34179440487171
1.34177574901818
1.34179431231071
1.34177572634321
1.34179429764856
1.29849267000028
1.29851215798936
1.29849267636277
1.2985122215289
1.29849266986271
1.29851221160845
1.24536643668181
1.2451303599477
1.24536644425626
1.24513040718299
1.24536640124893
1.24513040846409
1.15768099519395
1.15803315754312
1.15768100186527
1.15803318316685
1.15768095848016
1.15803318147332
)
;
    }
}


// ************************************************************************* //
