/*--------------------------------*- C++ -*----------------------------------*\
  =========                 |
  \\      /  F ield         | OpenFOAM: The Open Source CFD Toolbox
   \\    /   O peration     | Website:  https://openfoam.org
    \\  /    A nd           | Version:  11
     \\/     M anipulation  |
\*---------------------------------------------------------------------------*/
FoamFile
{
    format      ascii;
    class       volScalarField;
    location    "0.0000700081";
    object      T;
}
// * * * * * * * * * * * * * * * * * * * * * * * * * * * * * * * * * * * * * //

dimensions      [0 0 0 1 0 0 0];

internalField   nonuniform List<scalar> 
900
(
1889.98836866064
1886.74543732983
1884.34944474918
1890.14930111629
1886.89585548934
1884.43404784632
1890.20665236182
1887.03070723227
1884.48421370635
1889.98826372848
1886.74559362487
1884.34940796924
1890.14900306183
1886.89591437406
1884.43413329845
1890.20668409286
1887.03071669131
1884.48417782856
1889.98836726772
1886.74543896173
1884.34944745523
1890.14930021076
1886.89585679329
1884.43404987403
1890.20665169909
1887.03070731766
1884.48421440147
1889.98826649229
1886.74559021599
1884.349386985
1890.14901016405
1886.89590893787
1884.43411748103
1890.20668743542
1887.03071250327
1884.48417000599
1889.98838031221
1886.74543175104
1884.34940114211
1890.14930780776
1886.89584906437
1884.43401549639
1890.20665875429
1887.03070427037
1884.48420451326
1889.98826748588
1886.74558979224
1884.34938639761
1890.14901113297
1886.8959087859
1884.43411719376
1890.2066879102
1887.03071226789
1884.48416913708
1883.32407043121
1882.83795725251
1884.13608421812
1883.40739026233
1882.90105861949
1884.17753079679
1883.46216569729
1882.93944444925
1884.17798983293
1883.32417256489
1882.8375682834
1884.13731788294
1883.40771052322
1882.90041647171
1884.17836020996
1883.46210034349
1882.93934425656
1884.17818072569
1883.32407324239
1882.83795261077
1884.13611344675
1883.40739417909
1882.90105339861
1884.17756291594
1883.46216683955
1882.93944214422
1884.1779990795
1883.32416743867
1882.83757705701
1884.13725439736
1883.40771380195
1882.90040820605
1884.17830026987
1883.46208489164
1882.93934792507
1884.1781641324
1883.32405468264
1882.83800894486
1884.13592024164
1883.40736451774
1882.90111412703
1884.17732701994
1883.46216085047
1882.93945561574
1884.17794112568
1883.32416713688
1882.83758472022
1884.13724282411
1883.40771356422
1882.90041330274
1884.17828949813
1883.46208268756
1882.93934981191
1884.17816019268
1887.34587176021
1887.36943149151
1887.37677086878
1887.34700885594
1887.3698197006
1887.3768108473
1887.3458865879
1887.36944604504
1887.37677166509
1887.34697960786
1887.36980045301
1887.37680934641
1887.34583156262
1887.36939387884
1887.37676182872
1887.34697437581
1887.36979679336
1887.37680798752
1889.54880011109
1889.55722019501
1889.55646116503
1889.55155299112
1889.55842703372
1889.55683323543
1889.54883547378
1889.5572427199
1889.55647267194
1889.55149251079
1889.55838899828
1889.55680568456
1889.54856223504
1889.55707521799
1889.55638248576
1889.55148593952
1889.55838412229
1889.55680247475
1888.29921409764
1888.299772373
1888.29732309352
1888.30050600565
1888.30109555726
1888.29814742153
1888.29921695309
1888.29977418457
1888.29732501674
1888.30045720492
1888.30106844436
1888.29813019879
1888.29916220197
1888.29974210441
1888.29730198974
1888.30045201502
1888.301065256
1888.29812826277
1881.38267759976
1881.37943756681
1881.37787275287
1881.38443166007
1881.38170494939
1881.37845062688
1881.3826754107
1881.3794361259
1881.37787166519
1881.38439851488
1881.38169122251
1881.37844249432
1881.38268369899
1881.37944227849
1881.37787735494
1881.38439172801
1881.38168857629
1881.37844125645
1868.88589783136
1868.92782418662
1868.93460790776
1868.89396213919
1868.92060064903
1868.93208550037
1868.88589832061
1868.92782442746
1868.9346074304
1868.89391968509
1868.92056473918
1868.93207117628
1868.88587875957
1868.92780824436
1868.93460284596
1868.89391234889
1868.92055983648
1868.93206961833
1847.42125690806
1847.1571140908
1847.08908537003
1847.4671745689
1847.25266740381
1847.08688391206
1847.42126183722
1847.15711676906
1847.08908748201
1847.46721890636
1847.25270573614
1847.08689213915
1847.42126926453
1847.15713155904
1847.08909211842
1847.46721469056
1847.25270180134
1847.08689143301
1817.68263754882
1817.65606306524
1817.80866289078
1817.44885364532
1817.57083334141
1817.79612923872
1817.68263983675
1817.65606376207
1817.80866307593
1817.4489108997
1817.57088210405
1817.79615678521
1817.68265749279
1817.65607995109
1817.80867564333
1817.44891316433
1817.57088377238
1817.79615862755
1763.83536271128
1764.58978591438
1765.5421535994
1764.44529122411
1765.22006729447
1765.60930044486
1763.83536176886
1764.58978492462
1765.54215250886
1764.44534739056
1765.22009993496
1765.60931773407
1763.83539095969
1764.58980996705
1765.54216896122
1764.44534991731
1765.22010153417
1765.6093191747
1899.83263669149
1900.03466605227
1900.08490668714
1899.83264963023
1900.03463252022
1900.08491453795
1899.83263666054
1900.03466607803
1900.08490667788
1899.83264970853
1900.03463325666
1900.08491449966
1899.83263727875
1900.03466565165
1900.08490694159
1899.83264972852
1900.03463330922
1900.08491450122
313.616159606589
426.714415049281
426.700560308674
430.268747255705
473.757666645314
424.81380058652
344.787315013931
318.374444520376
309.390671566155
301.608881321524
300.054237684298
300.000259587545
300.000000137254
299.999999995739
299.999999996225
386.383797988857
831.118223543068
812.02161585831
719.00435481103
644.110280199773
611.944205117695
449.763010689369
346.028608851492
320.936924027603
304.583743153833
300.219203755603
300.001476906599
300.000001041877
299.999999997208
299.999999996985
500.703149893219
1066.53560190266
1112.10963406172
996.632920471621
900.43397789692
884.031550623913
630.347657781789
393.245450275548
336.963936547838
308.981413656961
300.551165941754
300.004705999158
300.000004007422
299.999999997417
299.999999997122
805.583320533456
970.004022594006
1140.64654499849
1134.07445266932
1080.81578108945
1126.36210957451
864.116071051496
471.824485958505
355.485073886732
314.026878676277
301.031733251042
300.010972417747
300.000011241321
299.999999998192
299.999999997309
341.482971583156
547.035180886846
552.342313906155
521.011686882784
486.202984577751
403.66087324863
331.300288917779
317.179559442616
311.837039442805
303.321198506778
300.185591336764
300.001421097559
300.000001095461
299.999999995833
299.999999996206
481.281099536799
805.943414292963
738.48138214445
623.315285365701
585.563739530814
572.237211780434
426.867508423861
327.607047550009
314.547034898955
305.152054732583
300.437375701604
300.004922097207
300.000004993224
299.999999997514
299.999999997021
715.392591438593
1141.99657122258
1050.05856286038
871.112482909376
801.600488827451
837.913655470318
611.562846191259
372.343319683314
328.255198737812
308.962630034734
300.832116847117
300.010593611296
300.000012112293
299.99999999815
299.999999997202
1059.18858156889
1160.41238663538
1146.40264010344
1066.87755157477
1014.41869777831
1068.81285346302
819.170979452046
435.941053090697
343.24701222543
313.244425348196
301.311387523476
300.018134385981
300.0000224512
299.999999999396
299.999999997349
313.616143009688
426.714341909353
426.700494235685
430.268688639837
473.757603896112
424.813767866044
344.78731149521
318.374442191142
309.390667534016
301.608880585746
300.05423767586
300.000259587649
300.000000137255
299.99999999574
299.999999996225
386.383761466591
831.118113249999
812.021482360377
719.004240018561
644.11019112743
611.944137906474
449.763001912679
346.028613257083
320.93692287843
304.583742061482
300.219203706555
300.001476906553
300.000001041878
299.999999997208
299.999999996985
500.703100484666
1066.53561354315
1112.10956167904
996.632832511872
900.433883029916
884.03146716604
630.347634706152
393.245452465813
336.963936277146
308.981412373414
300.551165846254
300.004705998814
300.000004007423
299.999999997418
299.999999997122
805.583348625718
970.004062750841
1140.64657161884
1134.07444527715
1080.81572673893
1126.36206171462
864.11606683727
471.824493632245
355.485074029069
314.026877140902
301.031733118729
300.010972417066
300.000011241322
299.999999998193
299.999999997309
341.483092751014
547.036008993636
552.343157411793
521.012253300253
486.203044756563
403.660988322937
331.300586034963
317.179652524062
311.836937350746
303.321149949695
300.185588234671
300.001421071967
300.000001095462
299.999999995858
299.999999996221
481.281316326527
805.944602283676
738.482558204942
623.316097491525
585.563802474462
572.237145817086
426.868064139664
327.607260110512
314.547101849477
305.152037594105
300.437371670959
300.004922027361
300.000004993155
299.99999999753
299.999999997029
715.392433924453
1141.99703750073
1050.05941772463
871.113476596412
801.600727345953
837.913539096102
611.563344430882
372.343592002629
328.255258631808
308.962615912792
300.832112208724
300.010593516776
300.000012112173
299.999999998157
299.999999997207
1059.18807577408
1160.41199542794
1146.40279959328
1066.87806997033
1014.418937477
1068.81283770076
819.171360414009
435.941480523227
343.247117288821
313.244413115365
301.311382969681
300.018134292225
300.000022451079
299.999999999399
299.999999997352
313.616304339464
426.715053461666
426.701064820218
430.269321412373
473.758755338903
424.81439358029
344.787296313048
318.374470943902
309.390778361712
301.608903166633
300.054238025221
300.000259585256
300.000000137226
299.999999995715
299.999999996212
386.384173679492
831.119234921554
812.022795957235
719.005382994473
644.111607241653
611.945483227763
449.76296551847
346.028418437963
320.936939750057
304.583773013181
300.219205261773
300.0014769098
300.000001041852
299.999999997193
299.999999996977
500.703665304754
1066.53546146544
1112.11031395829
996.633709060292
900.435332660133
884.033040836039
630.347771447989
393.245256718534
336.963920912684
308.981448359048
300.551168807217
300.004706012785
300.000004007407
299.999999997411
299.999999997117
805.582742632686
970.003492272676
1140.64617803278
1134.07455714778
1080.8167112012
1126.36291765023
864.115732847073
471.82412143568
355.485041006198
314.026918177674
301.031737070073
300.010972442218
300.000011241311
299.999999998189
299.999999997305
341.483107107918
547.036084420064
552.343234193244
521.012318073788
486.203074681311
403.661005300861
331.30060028948
317.179656795633
311.836934031252
303.321148256634
300.185588123884
300.001421071039
300.000001095461
299.999999995858
299.99999999622
481.281346614305
805.944709054253
738.482664584327
623.316183779611
585.563836075209
572.237163519755
426.868094026405
327.607269484134
314.547104405837
305.15203697708
300.43737152501
300.004922024825
300.000004993152
299.999999997529
299.999999997029
715.392438929647
1141.99707366825
1050.05949199905
871.113570497256
801.600772356512
837.913566400047
611.563379554647
372.343605084657
328.255261190261
308.962615444401
300.832112043101
300.01059351333
300.000012112168
299.999999998157
299.999999997207
1059.18804703285
1160.41195468342
1146.40280929618
1066.87811295326
1014.4189661782
1068.81285772287
819.171388657731
435.941498812211
343.24712132935
313.244412769612
301.31138281398
300.018134288846
300.000022451075
299.999999999399
299.999999997353
1388.5889627134
902.221534155205
896.837428714314
1022.21932979603
1104.08862395756
1247.6196069031
1046.5467945495
563.666214529958
372.386278741942
318.127171209283
301.485712983552
300.018616397865
300.00002219893
299.99999999952
299.99999999742
1421.86275559076
993.901208680079
812.614696954166
869.660711262002
1035.99954358706
1268.45093051067
1129.81365614009
635.34092430982
384.30764597671
320.313580590468
301.787793827849
300.025005214339
300.000033576775
300.000000001061
299.999999997472
1468.98753168946
1076.75462972709
826.919750623512
802.235922491622
965.120053128701
1256.1312174775
1149.57568983537
669.311830612136
390.340240143682
321.751500419856
302.04512891539
300.030891717993
300.000044298961
300.000000002571
299.999999997498
1443.48198377749
1041.36549310088
1015.31656556853
1047.09983300428
1081.42515759167
1220.77848053777
1004.39249496634
533.657765674217
360.761161491377
316.638937111717
301.6780780113
300.024693161432
300.000032798797
300.000000000751
299.999999997439
1464.39304454796
1096.980645964
900.421358695392
938.393981410781
1037.3967976416
1258.59745986389
1094.69833843831
607.79535104962
374.918771318318
319.567534934567
301.912629952985
300.028722123223
300.000039803809
300.00000000179
299.999999997482
1483.94501597149
1117.98923092503
854.366762248859
826.134196767401
971.096323444497
1253.13031755154
1145.89431181519
673.112273375552
391.655436485178
321.885250630634
302.044466469012
300.030800908433
300.000044118142
300.000000002477
299.9999999975
1388.58895190549
902.221541336364
896.837491142999
1022.21937711923
1104.08862460791
1247.61958609509
1046.54679887231
563.666223479284
372.386279247498
318.127170037632
301.485712864246
300.018616397203
300.000022198931
299.99999999952
299.99999999742
1421.86274571387
993.901199781549
812.614721311193
869.660756185051
1035.99954344886
1268.45092732333
1129.8136640316
635.340930881222
384.307646254399
320.31357984589
301.787793743222
300.025005213993
300.000033576776
300.000000001061
299.999999997472
1468.98752544069
1076.75462390719
826.919743035495
802.235947351097
965.120063750302
1256.13121912144
1149.57569486098
669.311835001748
390.340240403311
321.751500150059
302.045128891238
300.030891718054
300.000044298961
300.000000002571
299.999999997498
1443.48200273949
1041.36522603254
1015.31581754874
1047.09984520322
1081.42536790388
1220.77848544374
1004.39255850243
533.658090543979
360.761279246199
316.638932023847
301.678074633489
300.024693092277
300.000032798715
300.000000000754
299.999999997442
1464.39314058373
1096.98069319868
900.420908896459
938.393523507352
1037.39710573249
1258.59758955488
1094.69827168139
607.79534779572
374.918818241459
319.567537774474
301.9126284092
300.028722089184
300.000039803766
300.000000001793
299.999999997484
1483.94508062503
1117.98925964453
854.36673299799
826.133894590992
971.096327918539
1253.13031129548
1145.89405102624
673.112145787356
391.655444923663
321.885255837664
302.044466437877
300.030800896037
300.00004411812
300.000000002477
299.9999999975
1388.58909058411
902.221322522024
896.836613251482
1022.21871938937
1104.08881321943
1247.61994725879
1046.54645395496
563.66585237242
372.386235448633
318.12719961829
301.485716324204
300.018616421603
300.000022198918
299.999999999517
299.999999997418
1421.86286048385
993.901278088623
812.614422419551
869.660165149255
1035.99972714087
1268.45101563436
1129.81341290707
635.340707933245
384.30762301521
320.313597306031
301.78779607776
300.02500522754
300.000033576762
300.000000001058
299.99999999747
1468.98760152053
1076.75469587637
826.919818315704
802.235626036146
965.119968890468
1256.13122280785
1149.57556826846
669.311711375526
390.340229258535
321.751506405235
302.045129448621
300.030891716786
300.000044298948
300.000000002571
299.999999997498
1443.48200525173
1041.36520395146
1015.31575449889
1047.09984166143
1081.42537717903
1220.77849483647
1004.39256826447
533.658103693129
360.761283598711
316.638931939904
301.678074523169
300.024693089827
300.000032798712
300.000000000754
299.999999997442
1464.39314958927
1096.98069617348
900.420870365408
938.393482227401
1037.39711345822
1258.59759761817
1094.69827108352
607.79534788416
374.918819941838
319.567537939919
301.912628363262
300.028722087997
300.000039803764
300.000000001793
299.999999997484
1483.94508652863
1117.98926216826
854.366731786236
826.133866271916
971.096319665123
1253.13030951486
1145.89404071924
673.112141495748
391.655445446223
321.885256074101
302.04446644106
300.030800895581
300.000044118119
300.000000002477
299.9999999975
)
;

boundaryField
{
    inlet
    {
        type            timeVaryingMappedFixedValue;
        fieldTable      T;
        value           nonuniform List<scalar> 
24
(
1899.99993997561
1899.99993997561
1899.99993997561
1899.99993997561
1899.99993997561
1899.99993997561
1899.99993997561
1899.99993997561
1899.99993997561
1899.99993997561
1899.99993997561
1899.99993997561
1899.99993997561
1899.99993997561
1899.99993997561
1899.99993997561
1899.99993997561
1899.99993997561
1899.99993997561
1899.99993997561
1899.99993997561
1899.99993997561
1899.99993997561
1899.99993997561
)
;
    }
    outlet
    {
        type            freestream;
        freestreamValue uniform 300;
        value           nonuniform List<scalar> 
156
(
300
300
300
300
473.511999848867
424.293050526112
344.365802426172
318.306188521143
309.311310987013
301.583959731241
300.052946993044
300.000250827292
300.000000130859
300
300
300
546.568115347944
551.838045702384
520.770977108293
485.747959803375
403.12743765272
330.981337563797
317.158790631499
311.803982113078
303.285679218262
300.181515607735
300.001370620678
300.000001039598
300
300
300
300
300
300
473.511937179313
424.293018089308
344.365798912811
318.306186165122
309.31130693956
301.58395901047
300.05294698521
300.000250827396
300.00000013086
300
300
300
546.56894125536
551.838886174947
520.771539790279
485.748017487865
403.127556056007
330.98163431253
317.158881997512
311.803879491517
303.28563114456
300.181512574452
300.001370596014
300.0000010396
300
300
300
300
300
300
473.513089791329
424.293638018339
344.365784327753
318.306216119558
309.31141839298
301.583981161159
300.052947314986
300.000250824998
300.000000130831
300
300
300
546.56901651593
551.838962701227
520.771604287278
485.748047222498
403.127573093273
330.981648523257
317.158886200273
311.803876150008
303.285629468049
300.18151246613
300.001370595119
300.0000010396
300
300
300
300
300
300
300
300
300
300
300
300
300
300
300
300
300
300
300
300
300
300
300
300
300
300
300
300
300
300
300
300
300
300
300
300
300
300
300
300
300
300
300
300
300
300
300
300
300
300
300
300
300
300
300
300
300
300
300
300
300
300
300
300
300
300
300
300
)
;
    }
    sides
    {
        type            zeroGradient;
    }
}


// ************************************************************************* //
