/*--------------------------------*- C++ -*----------------------------------*\
  =========                 |
  \\      /  F ield         | OpenFOAM: The Open Source CFD Toolbox
   \\    /   O peration     | Website:  https://openfoam.org
    \\  /    A nd           | Version:  11
     \\/     M anipulation  |
\*---------------------------------------------------------------------------*/
FoamFile
{
    format      ascii;
    class       volVectorField;
    location    "0.0000700081";
    object      U;
}
// * * * * * * * * * * * * * * * * * * * * * * * * * * * * * * * * * * * * * //

dimensions      [0 1 -1 0 0 0 0];

internalField   nonuniform List<vector> 
900
(
(-1.06209909863536 -1.83963488107095 669.967547026766)
(-0.738278327928958 -1.27879647567705 674.676825344881)
(-0.442204312012847 -0.765970679862326 677.614467779609)
(-0.523639495285474 -0.906992581350261 669.539359989153)
(-0.340333125133961 -0.589536317275793 674.500721007977)
(-0.206645233324234 -0.357961415268281 677.503392454445)
(-0.373216605440123 -0.646451119594381 668.580898198733)
(-0.295048949910017 -0.511110717583456 673.920714702422)
(-0.14289979086987 -0.247561312065841 677.160737757675)
(-2.12361329889002 -1.56427667306852e-06 669.967531028343)
(-1.47646667165611 -1.9826888403977e-06 674.676998562931)
(-0.884503117712437 -2.95876621316246e-06 677.614337885497)
(-1.0463625070078 -1.47834051779411e-06 669.539202437351)
(-0.680705404776161 -2.43971676238524e-06 674.500829867958)
(-0.413776649762199 -1.57999044995988e-06 677.503422194026)
(-0.746171873262959 -1.49762770261281e-06 668.580970974885)
(-0.59012964129445 -2.22205396715472e-06 673.920745018426)
(-0.286036059221931 -4.41585950509695e-07 677.160704476438)
(-1.06209948585746 1.83963235134266 669.96754654551)
(-0.738277800255381 1.27879274632657 674.676826867481)
(-0.442204320871348 0.765965300092981 677.614463367404)
(-0.523639603895313 0.906989732316087 669.539360118728)
(-0.340332747627066 0.58953182583395 674.500721522971)
(-0.206646653583667 0.357960614067728 677.503389061763)
(-0.373216564914349 0.646447131842292 668.580898309286)
(-0.295049145719115 0.511106529521771 673.920715226588)
(-0.142900412844029 0.247560123623981 677.160736077386)
(1.06182584498429 1.83912200729894 669.967518554848)
(0.738283528733394 1.27867628307423 674.677003746929)
(0.442296005240354 0.766016225468791 677.614347752924)
(0.523198007362282 0.906197547510883 669.539194560301)
(0.340410182180391 0.589532121639752 674.500839042736)
(0.206933245255139 0.358361415603827 677.503427799637)
(0.373097355639316 0.646215310492077 668.580963606977)
(0.295123987421902 0.511095176759673 673.920755692163)
(0.143060197663819 0.247743999248073 677.160711451828)
(2.12422121514784 -1.61882476902872e-06 669.967529508058)
(1.47666188105841 -1.44401671390117e-06 674.676806515614)
(0.884522480846905 -2.76636238375897e-06 677.61450196786)
(1.0472994383096 -1.53857706914647e-06 669.5393445254)
(0.680785125711317 -1.95848180310526e-06 674.500709885048)
(0.413361259417409 -1.69333883659613e-06 677.503418925196)
(0.74646474006294 -1.97324810495712e-06 668.580892744349)
(0.590219429096477 -2.27198444612511e-06 673.920712419013)
(0.285885112143089 -1.17628790425564e-06 677.160747496912)
(1.06182605625139 -1.83912553168248 669.967518443301)
(0.738283801831751 -1.27868080226123 674.677002854344)
(0.442295321584116 -0.766021091544514 677.614350163869)
(0.523198543148089 -0.906201464113516 669.539194188791)
(0.340410476850968 -0.589537604322282 674.500839377546)
(0.206933086417935 -0.35836441806416 677.503430034171)
(0.373097654742047 -0.646218845710075 668.58096339042)
(0.295124072888879 -0.511099894494917 673.920755569804)
(0.143060647118331 -0.247745746282331 677.160712779513)
(-0.282786459243261 -0.489820114920283 678.278706512786)
(-0.14944719819692 -0.258907039887959 677.646356430095)
(-0.0618412610005501 -0.107061366744355 674.258005148526)
(-0.131866726219483 -0.228413109129319 678.262146739857)
(-0.0615247979765726 -0.106628181626139 677.666597306977)
(-0.0290641007684777 -0.0502792812708124 674.288906897457)
(-0.099608986737359 -0.172503702887355 678.054486864474)
(-0.0472398199205704 -0.0819896280665108 677.578970411132)
(-0.0187265950201718 -0.0321279526943916 674.310070393009)
(-0.567466681713688 1.15094791756106e-05 678.278356755642)
(-0.295485613194467 -2.29352777175385e-05 677.647589185746)
(-0.126915322848197 2.501659281856e-05 674.255780292897)
(-0.265321925953607 1.03661792453805e-05 678.262570852419)
(-0.119796572471086 -2.36987036252953e-05 677.666320906336)
(-0.0624674994597117 2.48816410418696e-05 674.288230804056)
(-0.199760095200507 1.29708766283582e-05 678.054228357096)
(-0.0936863886836302 -2.81902388833923e-05 677.579816390049)
(-0.0379351738718236 3.3871678206951e-05 674.310844051251)
(-0.28279461990803 0.489848762233187 678.278696661804)
(-0.14943418583106 0.258855658331047 677.646360020306)
(-0.0618739833192159 0.10713565439243 674.257943632016)
(-0.131875320379887 0.228441706586542 678.262141975679)
(-0.0615105631326298 0.106574714071654 677.666597809044)
(-0.0291320383419585 0.0504143177168504 674.288882205939)
(-0.0996133720734721 0.172529018617563 678.054483335625)
(-0.0472361488472921 0.0819349521029736 677.578972397771)
(-0.0187334714568199 0.0321915190441082 674.310062553078)
(0.283724389228946 0.491509997058547 678.278371921542)
(0.147866431800864 0.25581616155347 677.647630507624)
(0.0633387175985071 0.11008959140833 674.255924709972)
(0.132648928428698 0.229828287889517 678.262607202779)
(0.0600296546100904 0.10366453517771 677.666326367258)
(0.0310281230237566 0.054135542551566 674.288391423845)
(0.0998180263060414 0.173003708963223 678.05422786765)
(0.0470204227937955 0.0811494169226087 677.579874451473)
(0.0186465864204959 0.0327668625101721 674.310861665392)
(0.565457095160054 7.28121202040753e-06 678.278810959479)
(0.299274693654967 -1.47393547468499e-05 677.646386792756)
(0.123086680114336 9.37787056002311e-06 674.25848355884)
(0.263602271203717 6.86239984642659e-06 678.262199205635)
(0.123432779069568 -1.47994633931923e-05 677.66666377277)
(0.0570231213620968 1.03114189967421e-05 674.289121439691)
(0.199104192643976 8.7476201774873e-06 678.054523874563)
(0.0948460139704017 -2.32092112300772e-05 677.57895708921)
(0.0367752039126448 1.91689119829356e-05 674.310042933507)
(0.283727897443838 -0.491493057596943 678.278371942949)
(0.147863392273823 -0.255857375581676 677.647618650504)
(0.0633607495093789 -0.110076492325858 674.255942791131)
(0.132651964982324 -0.229812841080752 678.262609765133)
(0.0600286495102832 -0.10371092281654 677.66631848166)
(0.0310400992044871 -0.0541033717787022 674.288412673671)
(0.0998199190351545 -0.172981283235466 678.054227788936)
(0.0470208126352273 -0.0812045773666444 677.579876471444)
(0.0186519128263669 -0.0327211780589431 674.31086778474)
(-0.0351011679011051 -0.0603083825816613 667.589953527708)
(-0.00877744605451476 -0.0147063648585659 667.610975983575)
(-0.00979741743999916 -0.0164173739139858 667.637047663247)
(-0.0687117146957013 9.81540304693591e-06 667.588242583028)
(-0.0169520413559366 7.55783225535933e-06 667.61053749356)
(-0.019045320981974 1.4838805867992e-05 667.637184025444)
(-0.0350996631010321 0.0603360837956612 667.589917921474)
(-0.00879338305922645 0.0147635896087707 667.610971959777)
(-0.00979859372837691 0.0164620508243106 667.637052766594)
(0.0340473137592008 0.0593247098582193 667.588348629167)
(0.00816358768915603 0.0144687242549075 667.610655621644)
(0.00911413701256733 0.0162377938448458 667.637235010528)
(0.0694995828188858 1.56031322487012e-05 667.590142113585)
(0.0167057680246533 1.53635158854418e-05 667.610987859438)
(0.0186869438905292 1.99697893811485e-05 667.63704124344)
(0.0340502028538921 -0.0593099304132326 667.588357747253)
(0.00816485170469941 -0.0144552996463698 667.610670712067)
(0.00911034862821252 -0.0162043270552741 667.637245433028)
(-0.00733605632337277 -0.012523986030601 663.677279077382)
(0.00410165248429349 0.00737346490263778 663.691496608201)
(-0.000180851435187366 8.99123801136181e-05 663.71486275141)
(-0.0237665037900565 2.423262156532e-05 663.67284675602)
(0.000490773446936371 3.45074182680514e-05 663.690197700123)
(-0.00293272765990615 4.89302416588013e-05 663.715545040761)
(-0.00739624110211253 0.0126222717658872 663.677222258412)
(0.00404296155354763 -0.00726343320281185 663.691472490529)
(-0.000220650705149124 6.41610676393764e-06 663.71486437277)
(0.0116321985430243 0.0205546346078385 663.673014412154)
(-0.000602342877848561 -0.000496557721239915 663.690327008022)
(0.000959466012364084 0.00247482557676372 663.715586102075)
(0.0137502874085946 -4.19958097453905e-06 663.677646988434)
(-0.00925885047921964 3.53657274796706e-06 663.69168038548)
(-0.000711133747831928 1.33941996482796e-05 663.714888880767)
(0.0116578115172826 -0.0205508284497299 663.673030094378)
(-0.000575564538344443 0.000518588323451459 663.690341489047)
(0.000991761936863415 -0.00243340795813791 663.715590110253)
(-0.000398563433719025 -0.000115730063479062 663.328900008423)
(0.00234409356739588 0.00471847614413021 663.340123893611)
(0.000459323085354447 0.00153076853969341 663.356357232093)
(-0.00628210667429775 4.19192530559459e-05 663.327131550522)
(0.000588818391520504 4.58477897757454e-05 663.339372635337)
(-0.00135787980394383 4.82640780135705e-05 663.356226819171)
(-0.000427808603381058 0.00020407053392649 663.328905955407)
(0.00232184154519968 -0.00462331900715613 663.340131465503)
(0.000445553349050093 -0.00143708516322622 663.356361366226)
(0.00253076522753766 0.00518340839162921 663.327205758894)
(-0.000943853112394359 -0.000772936427247338 663.339414332821)
(-1.92641715191372e-05 0.000881721558780167 663.356224915943)
(-0.000446887583811073 2.09131817885028e-05 663.328908992942)
(-0.00602945763375846 2.91417960410786e-05 663.3401127406)
(-0.00228839138360174 3.50992799693655e-05 663.356348949149)
(0.00254109950309678 -0.00511700318654845 663.327209790616)
(-0.000931783688305611 0.000843503764149861 663.339416148848)
(-9.62690948052958e-06 -0.000801755037381888 663.35622318103)
(0.0356258631472561 0.0624814916360905 672.566467254688)
(0.025628627792397 0.0452092592247831 672.555229276471)
(0.0121361775515072 0.0219178749742103 672.564116735466)
(0.0463907732354742 4.8404960653669e-05 672.556482400044)
(0.0321519296455709 5.03766894096797e-05 672.554978021212)
(0.0164110589182951 5.12370501955921e-05 672.562611228757)
(0.0356102409271494 -0.0623868676019448 672.566473651744)
(0.0256158163652693 -0.0451105148669315 672.55523841157)
(0.0121295862833292 -0.021817263953674 672.564121436464)
(-0.0239355198993469 -0.0405108708023062 672.556518121674)
(-0.0168377966413458 -0.0281930361417425 672.554994380292)
(-0.00898638338544257 -0.0145794528326865 672.562601113)
(-0.0727017621289544 3.57279318401642e-05 672.566435695981)
(-0.0527553114135452 3.88773697784989e-05 672.555186323128)
(-0.0258275551626776 4.47544120181773e-05 672.564104733302)
(-0.0239292245201525 0.0405972526341213 672.556521299303)
(-0.0168319400803104 0.0282836798778087 672.554993766026)
(-0.0089815623146877 0.0146736424814985 672.562596739616)
(-0.227942687773664 -0.393804482020166 689.432924517203)
(-0.147943855534781 -0.25529241915252 689.397105336143)
(-0.0737804916364076 -0.126741360514188 689.323396460383)
(-0.293900727853505 5.65572032453987e-05 689.339491070384)
(-0.172291463957376 5.69831786477039e-05 689.327600844627)
(-0.088983720215647 5.95091303068618e-05 689.319471784314)
(-0.227944832983037 0.393915034104058 689.432925362775)
(-0.147949101837203 0.255404466006816 689.397106407247)
(-0.0737811719310046 0.126860019144498 689.323397330735)
(0.146103119549011 0.254113825917431 689.339573305978)
(0.0852735853983188 0.148770776069641 689.327656387661)
(0.0436052223323665 0.0766151591550661 689.319475061195)
(0.454169693918578 5.37926756190104e-05 689.432997886095)
(0.294203135473831 5.15277058320853e-05 689.397148775243)
(0.145810731217981 5.81006236391797e-05 689.323416328175)
(0.146105441697948 -0.254004636468381 689.339578857084)
(0.0852725005938898 -0.148654871181274 689.327659187192)
(0.0436044019614051 -0.0764956534641532 689.319470548767)
(0.674610756979683 1.17007191438437 715.987914798922)
(0.390411889113538 0.677790338266559 716.18397152077)
(0.189799388633915 0.33031076670892 716.058626658736)
(0.672495192638108 5.87949793269434e-05 715.80997832261)
(0.301393412960429 5.86303131416147e-05 716.046489372363)
(0.22134846240952 6.34925156713523e-05 716.101093934358)
(0.674618718470232 -1.16995046166156 715.987910386833)
(0.390413621578765 -0.677669998579233 716.183966487094)
(0.189802896898397 -0.330177599741481 716.058624618226)
(-0.337502352973702 -0.583061412960574 715.809965652259)
(-0.151948360219896 -0.261676919030889 716.046492330381)
(-0.111957952398245 -0.192376888544461 716.101118678513)
(-1.35181331959249 6.82630623915548e-05 715.987958318499)
(-0.783393477865313 6.24785139741946e-05 716.184011908524)
(-0.382185858259507 6.93311371299438e-05 716.058647267314)
(-0.337508780308475 0.583190756978635 715.809971434592)
(-0.151956176349727 0.261808332275781 716.046496807973)
(-0.111965126333546 0.192515900259176 716.101119331623)
(-0.092351907176379 -0.158083318251201 751.782775163981)
(-0.189162768216776 -0.325781935091097 751.761179276764)
(-0.118795295795651 -0.203900580372193 751.446485106281)
(-0.224855888050097 5.93478221691464e-05 751.810181457822)
(-0.280138492660601 5.93693198466496e-05 751.672465877803)
(-0.192098368380919 6.19151405412476e-05 751.394987715569)
(-0.0923475772376253 0.158205791429582 751.782774665383)
(-0.189159761386901 0.325904082202823 751.761177477126)
(-0.118793429390041 0.204028663533231 751.446485154197)
(0.110927741021988 0.193892618949454 751.810164651595)
(0.138572027030978 0.241777625768575 751.672464364864)
(0.094530142153722 0.165528866825011 751.395011719639)
(0.181661841517998 6.58105215645702e-05 751.782796374153)
(0.375293251868718 6.43919950042631e-05 751.761209868816)
(0.234517419632253 6.59873848417291e-05 751.446502119343)
(0.110922903479866 -0.193764984324649 751.810162648797)
(0.138567259845516 -0.241650020774991 751.672462679004)
(0.0945258435189288 -0.165397301503105 751.395011887069)
(0.565261161612739 0.980892281440617 815.151154386909)
(0.784317563221425 1.36029279936765 814.002637583043)
(0.481004404588267 0.834928503039707 811.983573543044)
(0.879827187483314 6.10332346750402e-05 814.717816381554)
(1.04585418274082 6.13548272618216e-05 813.482410904066)
(0.573130245550683 6.32600678455697e-05 811.883565997947)
(0.565263984600201 -0.980766451885139 815.151154097913)
(0.784319448479826 -1.3601663620162 814.00263784727)
(0.481005206999709 -0.834799085347998 811.983576571148)
(-0.441409311418761 -0.762788857698596 814.717839011905)
(-0.524411651458379 -0.906551281182339 813.482433112669)
(-0.288049113019355 -0.49714492930943 811.883608712544)
(-1.13354088541281 6.59676204256533e-05 815.15119608902)
(-1.57164443439985 6.53818497585856e-05 814.00267236792)
(-0.965006695991177 6.57047329502802e-05 811.983586474949)
(-0.441413235424042 0.762918245215454 814.717838716324)
(-0.52441527693914 0.906680713787858 813.482431911689)
(-0.28805118331181 0.497275355645119 811.883608303442)
(-1.1338014527131 -1.96384152902993 655.153006734132)
(-0.518533266875679 -0.898165680301413 654.523457725722)
(-0.35417126904762 -0.613481893169806 653.524833056342)
(-2.26737503108435 -1.32298709457977e-06 655.153090752052)
(-1.03686852285057 -1.30157788507691e-06 654.523617732057)
(-0.708342881264369 -1.38530395137925e-06 653.524908321357)
(-1.13380162461481 1.96383903510898 655.153006938367)
(-0.518533379430755 0.898163054203327 654.523457999328)
(-0.354171303599911 0.613479027162082 653.52483319033)
(1.1337186318082 1.96362370080583 655.153085304853)
(0.51846565779675 0.897975534984266 654.523611739044)
(0.354203152866467 0.613461594150289 653.524904485341)
(2.2676609483831 -1.43253802645286e-06 655.153000948692)
(1.03712675090426 -1.45041513067399e-06 654.52345310953)
(0.708406666333902 -1.49291359185947e-06 653.524830602491)
(1.13371867046629 -1.96362648633897 655.153085148382)
(0.518465808108751 -0.89797847760462 654.523611519271)
(0.354203225545163 -0.613464550392818 653.524904364757)
(-20.1450769117075 -34.8924139992789 23.755776439401)
(-8.82271729091036 -15.28148984857 55.4307652439411)
(-22.264219514012 -38.563079270922 132.617083021303)
(-21.2076154960175 -36.733006898865 173.948467522573)
(34.3280122950337 59.4576944261074 179.941895469818)
(132.361825156906 229.257415989294 134.250456844804)
(126.197372784164 218.580400350318 116.443220229501)
(89.9056220417547 155.721306944239 71.7577357632418)
(31.9200346078918 55.2873014296327 32.305756867903)
(3.67804221522028 6.37057853253583 4.46202057356091)
(0.0981529503150524 0.170006633512012 0.134567271620023)
(0.000433350812067152 0.000750589916038528 0.000654027064364772)
(2.11614489109818e-07 3.66524323594513e-07 3.95328791675693e-07)
(-2.28786135395461e-09 -3.96175127304431e-09 -1.04647438295459e-08)
(-1.49886493088493e-09 -2.60076279925718e-09 -5.00750347217813e-09)
(-1.9193076411134 -3.32454976660347 37.9584741751167)
(35.1002474184601 60.7955162462546 321.179761829252)
(19.4729000490696 33.7278990366081 458.092630545183)
(-3.02531563689057 -5.24008199270489 468.289245876485)
(12.9013218894423 22.3452916364238 369.242214706487)
(102.747462632754 177.963597944494 219.048720849243)
(113.228802904679 196.118069138403 186.996536878263)
(73.6784280058432 127.61486815012 124.283440260548)
(34.6585515438498 60.0304626437243 64.022899244822)
(6.10251953282736 10.5699111547119 13.9484199621385)
(0.24836810044789 0.430188345181942 0.587958073909168)
(0.0015371724870264 0.00266248022047398 0.00375585443400855)
(1.03513436526479e-06 1.79291752933798e-06 2.8070443835267e-06)
(1.11553713417052e-10 1.91295143714742e-10 -8.72454719498041e-09)
(-2.37581062682527e-10 -4.14206376837809e-10 -4.31327620320529e-09)
(65.7504088207335 113.883051676684 282.240818463316)
(148.773816063271 257.68424350644 980.598781313664)
(10.6545125358737 18.454926717392 1005.15657958964)
(-37.2169955035239 -64.4623683791895 892.502428173004)
(-18.7049244803379 -32.3981090514613 796.365473724931)
(78.3832671910261 135.763735451608 506.043660738848)
(114.324234764156 198.015132725982 316.255662041826)
(69.2212085348621 119.89472081151 199.963219147997)
(37.8258570608328 65.5164078275714 107.093056174572)
(8.55431734977968 14.8165636669106 30.4289138412222)
(0.473430104994584 0.820008875369854 1.64405297979898)
(0.003643459817132 0.00631069456091665 0.0126440436904731)
(2.92616689140256e-06 5.06830088394923e-06 1.09257290999544e-05)
(1.27436054324551e-10 2.14189964688839e-10 -4.55577341395575e-09)
(-1.98686336749355e-10 -3.48368622567549e-10 -3.68677448096294e-09)
(440.326889027633 762.668804085109 1080.32439209585)
(423.602152827416 733.701042690701 1443.85880837363)
(135.035738788146 233.889963123799 1501.58377540722)
(-42.0517488273645 -72.8352856363018 1377.27898894358)
(-37.5611575971208 -65.0578239882617 1277.33622877275)
(34.3435053100936 59.4843175164403 855.115997114786)
(70.0602119956627 121.347305967428 492.199491607477)
(54.746092596097 94.823088455069 293.461834807515)
(34.7581892462172 60.2030859731189 157.147277230149)
(10.0895667683226 17.475698515644 49.9260477445607)
(0.721259269370996 1.24926317130657 3.4060762009352)
(0.00676111139486023 0.011710640994941 0.0314262368301033)
(6.26018390937258e-06 1.08429947471043e-05 3.11043771798009e-05)
(6.96904097497795e-10 1.19460709590564e-09 2.11950938221242e-09)
(-1.00325822180359e-10 -1.80870844922197e-10 -3.43183311438778e-09)
(-24.1180911669699 4.81994217673403e-07 29.9308177262592)
(49.7125148106693 3.65339351995105e-06 133.02561959598)
(7.51130295678452 -5.85283927185306e-06 223.252608644736)
(6.13822943845158 2.38271089361576e-06 257.911313699445)
(89.8133377215241 1.0143774059297e-07 203.049060942148)
(240.180869449266 -2.34632143493531e-06 147.219187235317)
(222.176239756082 1.59634287603184e-06 114.066523085148)
(159.484263463891 2.56552149825488e-06 76.3138305716115)
(66.9923482190642 1.5196942492202e-06 39.4479473690478)
(11.0641176908525 5.25309963776911e-08 8.00671675458993)
(0.455850014251957 -2.85776519590804e-10 0.416000478010758)
(0.00300401113804066 1.13802483407595e-12 0.00334791241485856)
(1.99629893790508e-06 -2.52142657600008e-13 2.86783574245722e-06)
(-4.48376660093865e-09 -6.86619886011409e-13 -9.67871838389896e-09)
(-2.99967669891914e-09 -5.46546314180241e-13 -5.00931212103062e-09)
(35.574261204063 1.03904382823919e-05 78.0294928840069)
(129.403944017924 1.30399617399502e-05 348.562272374002)
(63.1736463110584 3.19032446105075e-06 459.435383131992)
(-35.0464124695338 -1.05194520160478e-06 414.717269602019)
(-4.532225994221 -8.80689997113239e-06 313.359171474244)
(166.726723554391 -1.36533991033737e-05 234.15864597525)
(207.392505257938 -6.35155459093351e-06 185.962418612231)
(130.049566566884 -1.9464262382174e-06 109.910453966384)
(55.4051790435757 -1.02894915149467e-06 54.8311917084138)
(11.2581859098774 1.92052658397525e-07 15.8800506755178)
(0.66244189227105 -1.12211927667142e-09 1.19939486982311)
(0.00596847904453264 -8.54393499267341e-12 0.0129107922808954)
(5.22241032767563e-06 -1.10947170614669e-13 1.34685589182184e-05)
(5.26475538260999e-10 -9.1048609793271e-13 -6.00498388971606e-09)
(-4.25004880482304e-10 -5.83554979112757e-13 -4.28748975104992e-09)
(204.355346598148 5.25506730940168e-05 375.395777073754)
(148.831428846103 4.31248594824584e-05 835.86937825335)
(-18.4141834688436 2.69806949518421e-05 799.096113241239)
(-67.2653048921171 4.67394447510401e-05 750.972250102799)
(-33.7340756331944 -8.267930443065e-07 664.844014975011)
(127.265808480119 -3.63643909582118e-05 505.2787730644)
(248.716875166576 -9.16658909645381e-06 320.940375348255)
(153.107873924658 -4.10467671932857e-06 178.326274311814)
(72.8353245047577 -2.11501406471571e-06 91.2702397099472)
(15.1509095166768 6.04525715577412e-08 29.9221224978631)
(0.952847010932702 -3.83529662776465e-09 2.44539567853894)
(0.0090365499025816 -3.38689434592e-11 0.0286969558225666)
(8.5434057144955e-06 -3.03192824245773e-14 3.28441953061166e-05)
(4.82856213221814e-10 -5.59978896057099e-13 7.51064096798274e-10)
(-4.32129905757555e-10 -5.42651389004587e-13 -3.6408653705455e-09)
(639.56228218235 2.28564987134728e-05 1023.93829348838)
(535.429945060183 3.80654879528441e-05 1281.70279720947)
(53.5327326978243 4.57228113346599e-05 1211.19629212483)
(-150.309628702111 3.96671840661711e-05 1192.95803142941)
(-114.679852275726 2.79420391989796e-05 1139.30365094277)
(62.956046467922 4.950014077562e-06 799.906991617765)
(174.812559157868 -1.42999902823754e-05 490.088287301627)
(128.473101473363 -7.68931511696673e-06 275.218142190975)
(72.8286259603512 -4.18422282012604e-06 142.997774171082)
(17.1975571364249 -6.66538232678001e-07 47.6830373708468)
(1.16511479245496 -1.4538497086863e-08 4.15090542951735)
(0.0115921977088244 -8.36948486874947e-11 0.0513537109219161)
(1.14024144437116e-05 -5.61531459888895e-14 6.14528800034909e-05)
(1.25806516249676e-09 -6.1397003997848e-13 9.10194787095988e-09)
(-3.07948134269051e-10 -3.06237010026478e-13 -3.3651148056846e-09)
(-20.1450869581419 34.8924223862382 23.7557845909885)
(-8.82273095627559 15.2815040302463 55.4307305935527)
(-22.2642355678554 38.5630904906455 132.617034806956)
(-21.2076305790858 36.7330109681498 173.948411851566)
(34.328002673106 -59.4576886238634 179.941839432178)
(132.361816487745 -229.25740216593 134.250436728968)
(126.19737155547 -218.580395287003 116.443207576909)
(89.905619573942 -155.721297129441 71.7577243955786)
(31.9200326837523 -55.2872925560933 32.305748384056)
(3.6780418756019 -6.37057721115842 4.46201890035241)
(0.0981529584844708 -0.170006622836066 0.134567255145315)
(0.00043335100852143 -0.000750590107840265 0.000654027321611757)
(2.11614580026658e-07 -3.66525463160182e-07 3.95329558419618e-07)
(-2.28781250958011e-09 3.96091860054927e-09 -1.04638956397396e-08)
(-1.49874048634668e-09 2.60019349558685e-09 -5.00704305652789e-09)
(-1.91932669704533 3.3245606065289 37.9584541185598)
(35.1002457770793 -60.7955148362195 321.179635103134)
(19.4728976047131 -33.7279035815709 458.092482436946)
(-3.02531265908826 5.2400810946672 468.289113738292)
(12.9013167870009 -22.3453005059401 369.242101263716)
(102.747455848784 -177.963599251151 219.048662014191)
(113.228810909998 -196.118085281182 186.996528632318)
(73.6784362066773 -127.614880323723 124.283438160616)
(34.6585534664433 -60.0304631712824 64.0228938491159)
(6.10251974521781 -10.5699102975655 13.9484168429789)
(0.248368109676918 -0.430188287294708 0.587957944140794)
(0.00153717282301499 -0.00266248013344847 0.00375585441945812)
(1.03513356358412e-06 -1.79291663026508e-06 2.8070463312927e-06)
(1.11614202583461e-10 -1.92084167074142e-10 -8.72388814020139e-09)
(-2.3712773791039e-10 4.1312847210849e-10 -4.31298911746872e-09)
(65.750347232546 -113.882964873207 282.240724347944)
(148.773742846697 -257.684087937388 980.598590254133)
(10.6545211186421 -18.4548836474161 1005.156330416)
(-37.2170072473474 64.4623369257688 892.502250854703)
(-18.7049239315177 32.3980900293859 796.36530673499)
(78.3832611914721 -135.763719626818 506.043533141154)
(114.324217789734 -198.015116479494 316.255633890012)
(69.2212106456026 -119.894723862959 199.963216132244)
(37.8258605660545 -65.5164108867472 107.093053391308)
(8.55431830161968 -14.8165636693629 30.4289103701965)
(0.473430147649344 -0.82000881880617 1.6440526877562)
(0.00364346040920654 -0.00631069429788496 0.0126440427694644)
(2.92616729198798e-06 -5.06830091567847e-06 1.09257308809429e-05)
(1.28077008712689e-10 -2.14752465138413e-10 -4.55532268488124e-09)
(-1.97827957479855e-10 3.47484477407232e-10 -3.68645062773459e-09)
(440.326842429585 -762.66869624579 1080.32433460694)
(423.602065032161 -733.700839354299 1443.85868613106)
(135.035697063522 -233.889804093201 1501.58359281809)
(-42.0517706606711 72.8353687383439 1377.2788669316)
(-37.5611619090724 65.0578356014558 1277.33606590728)
(34.3435012352121 -59.4843302378839 855.115908321509)
(70.0602094131438 -121.347329848265 492.199477873411)
(54.7461022111125 -94.823105813915 293.461837375631)
(34.7581955216307 -60.2030933812068 157.147274786031)
(10.089568268257 -17.4756993883937 49.9260444443088)
(0.721259373655331 -1.24926317299997 3.40607576632614)
(0.00676111232260532 -0.0117106407786233 0.0314262347584826)
(6.26018474597155e-06 -1.08429943524739e-05 3.11043789831868e-05)
(6.98338017944464e-10 -1.19415504073876e-09 2.11962331129733e-09)
(-9.96148634315693e-11 1.80809699489127e-10 -3.43154006533079e-09)
(12.0589789130529 20.8868766358435 29.9308810666029)
(-24.8564638430456 -43.0525213300968 133.026084852726)
(-3.75560744921985 -6.50536519912963 223.253506499108)
(-3.06929706008714 -5.31605648381095 257.91192116068)
(-44.9068287341474 -77.7807522262876 203.049098418786)
(-120.090527700462 -208.00294591958 147.219204933018)
(-111.088384103897 -192.410631573106 114.066864536694)
(-79.7422779363813 -138.117533474829 76.3137997525216)
(-33.4960861895047 -58.0168377822414 39.4475763850412)
(-5.53200695188423 -9.58171429809558 8.00659422054324)
(-0.227921964802303 -0.394772464374184 0.41599338264322)
(-0.00150198043371763 -0.00260150657813273 0.00334785036908162)
(-9.98127305167841e-07 -1.7288058678455e-06 2.86777509343219e-06)
(2.24241174074882e-09 3.89184113347477e-09 -9.68267773406489e-09)
(1.4998949243066e-09 2.60089667450224e-09 -5.00793139275506e-09)
(-17.7874648657095 -30.8083006874305 78.0296155098399)
(-64.7024147339259 -112.06748662345 348.563221608541)
(-31.5871322798861 -54.7102251451138 459.436595405233)
(17.5231119966797 30.3511348384147 414.718093654858)
(2.26618051882448 3.92512686995238 313.359062077848)
(-83.3630449130627 -144.389416901422 234.158320891159)
(-103.696206277531 -179.607339613078 185.962739257471)
(-65.0248385105414 -112.626399026668 109.910758265449)
(-27.7026413217306 -47.9824324308021 54.8312755275192)
(-5.62909965125318 -9.74987598350724 15.8799892167185)
(-0.331219188897392 -0.573688576766963 1.19938175818691)
(-0.00298420973900479 -0.00516880403908131 0.0129105888115608)
(-2.61117423862064e-06 -4.52268501172125e-06 1.34683074868012e-05)
(-2.67430136559787e-10 -4.58720822386972e-10 -6.0081093144633e-09)
(2.11051072228781e-10 3.69406944829425e-10 -4.28538560383891e-09)
(-102.17869870355 -176.976904866207 375.395832386189)
(-74.416700045538 -128.892469900705 835.871028940899)
(9.20655235318551 15.9469956094122 799.097730625934)
(33.6320058144137 58.253804330044 750.973482965208)
(16.866950384029 29.2147854750906 664.844163623413)
(-63.6324800354015 -110.215610007994 505.278676918044)
(-124.358249099112 -215.395047079265 320.940530125794)
(-76.5538410071394 -132.595291593794 178.326784025613)
(-36.4176216768288 -63.0772694046518 91.2705215239325)
(-7.57545634355633 -13.1210717677469 29.9220860091541)
(-0.476422907431906 -0.825188975674192 2.44537938010316)
(-0.00451826652111093 -0.00782587037496835 0.0286966733945715)
(-4.27170036546466e-06 -7.3987997803301e-06 3.28438254589754e-05)
(-2.42142507472988e-10 -4.16445970341845e-10 7.48777697358266e-10)
(2.16268891001701e-10 3.77841438918102e-10 -3.64079657247132e-09)
(-319.781281781844 -553.877093874887 1023.93763969177)
(-267.716429157042 -463.697668314304 1281.70456162695)
(-26.7675007059844 -46.3615596539885 1211.19832425024)
(75.1540417584567 130.172072892564 1192.95898377851)
(57.339302026976 99.3158346673176 1139.30406660513)
(-31.4781460234649 -54.5214128094036 799.907181943257)
(-87.4057763727019 -151.391807690941 490.08811202308)
(-64.2363782917329 -111.261000107691 275.218531881774)
(-36.4142835516575 -63.0715916551753 142.997982081267)
(-8.59878500063225 -14.8935682604482 47.6830297974127)
(-0.582558078820611 -1.00902110852908 4.15089001019267)
(-0.00579610833545003 -0.0100391609252249 0.0513534276962783)
(-5.70122963119911e-06 -9.87481632134284e-06 6.1452533760254e-05)
(-6.26338964951877e-10 -1.08122121855452e-09 9.10209123959826e-09)