/*--------------------------------*- C++ -*----------------------------------*\
  =========                 |
  \\      /  F ield         | OpenFOAM: The Open Source CFD Toolbox
   \\    /   O peration     | Website:  https://openfoam.org
    \\  /    A nd           | Version:  11
     \\/     M anipulation  |
\*---------------------------------------------------------------------------*/
FoamFile
{
    format      ascii;
    class       volScalarField;
    location    "0.0000099775";
    object      Ma;
}
// * * * * * * * * * * * * * * * * * * * * * * * * * * * * * * * * * * * * * //

dimensions      [0 0 0 0 0 0 0];

internalField   nonuniform List<scalar> 
900
(
0.407491513025353
0.400894375933359
0.355627574833791
0.393395283338542
0.403347496594995
0.366521557254809
0.395872568524344
0.417298655841979
0.376725352915049
0.407491515044099
0.400894377577125
0.355627575197591
0.39339528943229
0.403347499750245
0.366521558002548
0.395872570513773
0.417298657444017
0.376725352859136
0.407491513028005
0.400894375939758
0.355627574843356
0.393395283343166
0.403347496601461
0.366521557259005
0.395872568521768
0.417298655837973
0.376725352905613
0.407491513027401
0.400894375938386
0.355627574842121
0.39339528334298
0.403347496600704
0.366521557260487
0.395872568524192
0.417298655842295
0.376725352910957
0.407491515043393
0.40089437757565
0.355627575199487
0.393395289435888
0.403347499754359
0.366521558010904
0.395872570522329
0.417298657456219
0.376725352874508
0.407491513033117
0.400894375947648
0.355627574850685
0.393395283350446
0.403347496613245
0.366521557269657
0.395872568533716
0.4172986558541
0.376725352926335
0.205779505564346
0.0377397287674932
0.00120375994289948
0.212245410895342
0.0384162060495358
0.0011952033347438
0.218951565382226
0.03922577821941
0.00119131150469116
0.205779504210791
0.0377397283361
0.00120375992952068
0.212245410052852
0.0384162056998873
0.00119520332287055
0.218951565348644
0.0392257781387515
0.00119131149904245
0.205779505575194
0.0377397287715858
0.00120375994317304
0.212245410900853
0.0384162060538053
0.00119520333513343
0.218951565373634
0.0392257782180763
0.00119131150469416
0.205779505575739
0.0377397287721
0.00120375994320571
0.212245410902328
0.0384162060546072
0.00119520333515504
0.218951565375815
0.0392257782213188
0.00119131150492934
0.205779504214455
0.0377397283386643
0.00120375992970402
0.212245410061116
0.0384162057062477
0.0011952033233235
0.218951565367192
0.039225778155373
0.00119131150046343
0.205779505583599
0.0377397287765475
0.00120375994358257
0.212245410911712
0.0384162060620866
0.00119520333588778
0.218951565397183
0.0392257782324662
0.00119131150587231
7.38411357048059e-06
7.20075483771769e-06
7.02246335026731e-06
7.38411343446017e-06
7.20075473343628e-06
7.02246319889283e-06
7.38411357485703e-06
7.2007548439629e-06
7.02246335054935e-06
7.38411357379621e-06
7.2007548428105e-06
7.02246335184706e-06
7.38411343583588e-06
7.20075473691475e-06
7.02246320979842e-06
7.38411357801522e-06
7.20075485151297e-06
7.02246336054459e-06
1.8372040486771e-08
1.78286639530369e-08
1.72534534514711e-08
1.83720373836948e-08
1.7828662223045e-08
1.72534503952738e-08
1.8372039576911e-08
1.78286634302653e-08
1.72534532291991e-08
1.83720405950705e-08
1.78286642650361e-08
1.72534535520492e-08
1.83720373233485e-08
1.78286622444215e-08
1.7253450555866e-08
1.8372040276958e-08
1.78286640785529e-08
1.72534536290994e-08
1.05282022554876e-09
1.04998210715534e-09
1.04599328159284e-09
1.05282109697865e-09
1.04998257547623e-09
1.04599308084781e-09
1.05282126715878e-09
1.04998273209141e-09
1.04599309493639e-09
1.05282071647001e-09
1.0499824835153e-09
1.0459933627639e-09
1.05282120008415e-09
1.04998266303645e-09
1.04599315258276e-09
1.05282080579536e-09
1.04998239119433e-09
1.04599309148484e-09
6.48967151889716e-10
6.47676907407779e-10
6.46140833220076e-10
6.48966254633249e-10
6.47675882186133e-10
6.46140580019428e-10
6.48967003372117e-10
6.4767671415953e-10
6.46140740865074e-10
6.48966960493304e-10
6.47676681783864e-10
6.4614064891227e-10
6.48966128940255e-10
6.47675766556996e-10
6.46140415781192e-10
6.48966491254198e-10
6.47676444103517e-10
6.46140825933769e-10
1.01845398515459e-10
1.0074390387364e-10
9.94093549020004e-11
1.01848502538297e-10
1.00747057515702e-10
9.94099203263674e-11
1.0184725822248e-10
1.00745401020477e-10
9.94097419515879e-11
1.01846805896277e-10
1.00745117674032e-10
9.9409944329961e-11
1.01848453880155e-10
1.00747027417685e-10
9.94101410059581e-11
1.01846291884716e-10
1.00744815590024e-10
9.94095037768888e-11
2.28397268329579e-12
2.24426031067341e-12
2.17776915105519e-12
2.27895889548057e-12
2.24005311401594e-12
2.17663809052865e-12
2.28194314745629e-12
2.24254612665449e-12
2.17709475788555e-12
2.28151437888998e-12
2.24214799852611e-12
2.17675182987484e-12
2.27893321667354e-12
2.23996418055731e-12
2.17582704958828e-12
2.28275179701943e-12
2.24283959831769e-12
2.1769755139162e-12
4.34685138334277e-14
4.152946208123e-14
3.92524194475933e-14
3.87105320440051e-14
3.90645313967909e-14
3.88335307016932e-14
4.07379157130076e-14
3.99232288211242e-14
3.85993137476725e-14
4.34043444876084e-14
4.12939684416122e-14
3.90941121499158e-14
3.88793118297067e-14
3.92297939660726e-14
3.91679836267287e-14
4.18189002369279e-14
4.09098110270694e-14
3.93650067091116e-14
1.44545122731661e-15
1.70475233811375e-15
1.53079392851136e-15
2.89272407043892e-15
2.83270953120448e-15
1.51313083990109e-15
2.84922577676818e-15
2.36970055185481e-15
1.93798029440256e-15
2.00546785951225e-15
2.30612038930868e-15
1.99166820988164e-15
2.68688288464486e-15
2.45990486307791e-15
1.04076512384628e-15
2.06189612426124e-15
1.68000161289983e-15
1.56939814743275e-15
0.313732425581854
0.272029139052622
0.245551791844748
0.313732430021118
0.272029137895226
0.245551792817394
0.313732425582733
0.27202913905121
0.245551791840398
0.313732425583711
0.2720291390511
0.245551791840687
0.313732430026687
0.272029137899999
0.24555179281896
0.313732425588037
0.272029139058473
0.245551791846207
4.18564528289342e-16
1.01136896468762e-15
4.66961349546365e-16
1.03961573457779e-15
3.1808377360668e-16
6.9268765865348e-16
1.12238794504871e-15
7.49560903099935e-16
8.11363691426685e-16
8.54833891666098e-16
4.8747362410242e-17
1.01360006768787e-15
5.87416641450146e-16
6.44644128151789e-16
1.05983706144132e-16
1.10576276643522e-15
5.29972911089485e-16
3.8414954297066e-16
1.2324811174374e-15
2.36986428543008e-15
1.22214288068802e-15
1.47833595590638e-15
2.02875564457023e-15
1.52987119351454e-15
1.61137141651402e-15
1.9592637679038e-15
1.1909299408888e-15
8.55485379838863e-16
1.61352032208306e-15
1.00969448295032e-15
4.41610825446606e-16
5.50932597474654e-16
6.11691533673648e-16
5.76469531614429e-16
1.22525040381098e-15
5.89812078727185e-16
6.02137604659214e-16
6.49717157323336e-16
7.41071213850379e-16
1.04953373803124e-15
5.17306656189462e-16
4.18653910901846e-16
3.93877828435719e-16
5.56841697838989e-16
3.51520302618959e-16
7.82099347854859e-16
7.30114391387003e-16
8.39197458415953e-16
8.85948032538699e-16
5.27223320310431e-16
6.47677379049927e-16
6.04661775923806e-16
8.93569082596005e-16
1.04471426111002e-15
9.09421144526922e-16
4.05600709102245e-16
6.75400708033472e-16
4.07735177815858e-16
3.09094492590804e-16
6.62873787757178e-16
1.77908596145926e-15
5.98632324228558e-16
1.30965963909329e-16
1.06766268056103e-16
3.70216663101593e-16
9.26801632322585e-17
1.6213508891037e-16
9.6834269069903e-16
4.45955945795414e-16
4.29484321718569e-16
1.31918105342132e-16
6.45226901923579e-16
3.21139236580532e-16
2.46263318891544e-16
5.51101044989467e-16
5.40757530106966e-16
1.58588488909846e-15
9.10654452194466e-16
1.6902264243833e-15
1.83885355534849e-15
2.06565283957746e-15
1.44341904988409e-15
2.22826664047279e-15
2.9210722413404e-15
1.5682544723977e-15
2.25216980194937e-15
1.78371127425864e-15
8.54527023500806e-16
9.67807081508527e-16
9.57451443725159e-16
1.25917696426414e-15
1.22440231519702e-15
1.60835398112377e-15
1.1531065961432e-15
2.03197481737032e-15
1.55832701465148e-15
1.37255111560793e-15
1.42526539302016e-15
1.81084171516408e-15
1.64588401518123e-15
2.30675590484176e-15
1.91034035225522e-15
1.11925733203702e-15
1.79497282622736e-15
1.29318143063174e-15
7.39193841741613e-16
1.72853032091934e-15
2.40348750400606e-15
1.60123218739107e-15
1.64671685306412e-15
1.61606757871706e-15
1.65945992520044e-15
1.35189865711708e-15
1.84334759127124e-15
1.84480413743035e-15
8.22446799338107e-16
1.23776125966282e-15
1.68472479457831e-15
2.39383003429516e-15
1.18895827342125e-15
4.70943372604307e-16
1.34258883288061e-15
1.53253901689754e-15
9.32345415774799e-16
8.06799888796257e-16
6.25270199806345e-16
1.00185486442617e-15
1.25690355220256e-15
7.24638618910065e-16
3.7592985283661e-16
2.01654271563155e-16
1.27334101620379e-15
1.18872192725095e-15
8.77410352156747e-16
2.38216436812819e-16
2.33292773153805e-15
2.77457908698928e-15
1.76497977341595e-15
1.18203352411177e-15
1.72923398435693e-15
1.77890675432133e-15
1.2700193867932e-15
1.09317225522119e-15
2.48848353381409e-15
1.66513948537992e-15
1.93246478677002e-15
1.18983125368148e-15
5.5007953989426e-16
2.10557168399161e-15
6.99238550201544e-16
1.33470431824559e-15
1.03744493683012e-15
5.44172238814135e-16
5.72870848073743e-16
1.09453483578776e-15
6.38567956636725e-16
6.27731628626127e-16
9.3296365550623e-16
1.13795425586751e-15
1.0035188811644e-15
3.62264141701107e-16
1.83687612206428e-16
8.38423694368873e-16
9.08351132162884e-16
4.84980389101857e-18
9.84292784093629e-16
8.67117490772736e-16
5.15424081722183e-16
1.30087357724845e-15
4.60505430828609e-16
6.62224203020536e-16
5.48518817620253e-16
1.03232015990829e-15
1.12939277880133e-15
8.31939686456542e-16
4.14980751135277e-16
5.15161304618158e-16
1.06536899543265e-15
8.97861638099216e-16
1.70343429775155e-15
5.72009731445081e-16
1.24675497276548e-15
4.85329921078994e-16
8.29259078495021e-16
3.38333404560413e-16
8.16615478766633e-16
8.98839618710412e-16
6.02923491651346e-16
6.14423244172101e-16
8.70710439941568e-16
8.82004084777611e-17
9.09987404513016e-16
6.57317775197034e-16
6.57105649666777e-16
1.04352905244207e-16
1.84637089965823e-15
7.81019909091867e-16
3.8446441483882e-16
1.01525109555009e-15
1.93705173267729e-15
1.23536037896773e-15
1.36634779982e-15
1.51223525997653e-15
1.38146262397303e-15
1.68910164034809e-15
1.86081930841082e-15
1.09590043967945e-15
8.48307269788208e-16
1.67523229812137e-15
1.03177449211879e-15
8.16691120283855e-16
5.62706556922815e-16
7.06347161879213e-16
7.81914821412907e-16
5.22422020135942e-16
6.3828284932065e-16
6.59220940440264e-16
8.16936965243926e-16
5.76236273276577e-16
9.83649945221201e-16
5.28203806249774e-16
3.39771890564813e-16
4.11073672703104e-16
6.22083535535469e-16
2.29306448068076e-16
7.03114287197555e-16
8.74175045564142e-16
9.46862825600843e-16
8.96805784851855e-16
5.96501726421595e-16
7.58843831809111e-16
5.20050931128808e-16
8.79611220432533e-16
1.12714350479999e-15
9.16464545888533e-16
4.14902142481995e-16
5.98304532581306e-16
3.5425738166471e-16
5.97520990636383e-16
7.84633422029751e-16
1.63557638339608e-15
4.75956427026012e-16
1.44731297502961e-16
4.58015836460711e-17
6.40861581916087e-17
2.15340765085882e-16
7.214425278903e-17
9.23572930626115e-16
4.81363758436712e-16
4.07766770485572e-16
1.54419395842846e-16
6.59355753909935e-16
3.31550629303893e-16
2.46655759583512e-16
5.0135865807312e-16
4.47373123027975e-16
1.70257024796428e-15
8.39118833742682e-16
1.69922812792627e-15
1.90951008907918e-15
2.09641034214846e-15
1.44844097276714e-15
2.17740824227225e-15
2.92493283229714e-15
1.54337380524761e-15
2.27223064908604e-15
1.80843277217954e-15
8.72713811139069e-16
7.97890496030786e-16
9.14645480965248e-16
1.36383061664811e-15
1.25079982638967e-15
1.02242825551018e-15
1.13060491891946e-15
1.92742813372172e-15
1.53294458409652e-15
1.40034395791385e-15
1.41021014152697e-15
1.75131223140243e-15
1.62988999594448e-15
2.37746790957724e-15
1.92500131717214e-15
1.12405756145426e-15
1.23657115396952e-15
1.26128766060626e-15
5.03872137181935e-16
1.7004273788875e-15
2.56035717254308e-15
1.68017186468474e-15
1.61552583250314e-15
1.5809691901288e-15
1.6571479388318e-15
1.38069592196939e-15
1.78886783133933e-15
1.80432519569921e-15
8.29082774249503e-16
1.18053711433546e-15
1.460046501553e-15
2.41913072412627e-15
1.17255613302715e-15
1.62088946211408e-16
1.13446341985063e-15
1.54941367563528e-15
9.68630431984009e-16
8.41723274224727e-16
5.62611364602503e-16
9.32368915333307e-16
1.11816704563665e-15
6.33654605234409e-16
3.55920450719118e-16
2.35836750694667e-16
1.43176638859823e-15
1.19927936308181e-15
8.90091490838369e-16
2.18974989971367e-16
2.0444302439272e-15
2.77150276778278e-15
1.59742958636156e-15
1.22560545326717e-15
1.51170916179743e-15
1.75124395615623e-15
1.27111224739344e-15
1.03772451334985e-15
2.48939650864031e-15
1.78469397219394e-15
2.15936697640532e-15
1.23734688758723e-15
5.23285333184695e-16
2.08580961127055e-15
7.28070750456021e-16
1.57929867474922e-15
9.85679686651722e-16
4.98078245735987e-16
4.8825036183249e-16
1.02876498413229e-15
5.38918776012819e-16
6.18868045140677e-16
8.8148782385741e-16
1.1490159034484e-15
1.21179172782277e-15
5.82770441699871e-16
1.78215735032049e-16
8.17217410544206e-16
9.30206016282581e-16
7.2688838922523e-17
7.52071186142279e-16
9.4342982681606e-16
7.62587715766189e-16
1.09762361101854e-15
4.35386005641558e-16
6.28508115421552e-16
5.46800301945619e-16
7.55678890042546e-16
1.12300361429066e-15
7.82904842060487e-16
7.46151529824687e-16
5.52612826984509e-16
9.24063977816641e-16
9.20394537540621e-16
1.68179669585638e-15
1.3933886130222e-15
1.12899599295629e-15
7.60214213207286e-16
1.27339071059477e-15
7.36061097713274e-16
7.26871196569903e-16
5.89917892581422e-16
5.69017689184627e-16
2.05696007952918e-15
1.07050965054192e-15
1.08118969323296e-15
3.87033510098406e-16
7.42584299005786e-16
7.40622305655079e-16
9.25564514663574e-16
1.38273343170694e-15
1.00117056629055e-15
1.7386581534596e-16
1.43544809103433e-15
6.40026901134775e-16
8.4603935226466e-16
7.51926527063164e-16
5.90628462237697e-16
1.70277930536152e-15
7.69187730780305e-16
1.27588098286796e-15
3.60163796542006e-16
2.16205983494622e-16
7.07397466535828e-16
3.04991231079341e-16
1.40317139917708e-15
1.10161130917289e-15
4.99629297084748e-16
9.42507102057197e-16
1.18759526925544e-15
8.67939279453276e-16
5.17452148876438e-16
4.84567832573327e-16
1.42977257954813e-15
6.96400805591549e-16
2.52280656213358e-16
8.65186200756299e-16
8.20096641054115e-16
6.84995984549556e-16
1.58078542200229e-16
3.76391880499913e-16
1.30455000886272e-15
5.48166448476294e-16
9.91356333394736e-16
5.28632529525777e-16
1.19156531270343e-15
4.51028355624168e-16
2.66212439079297e-16
5.52293684323493e-16
2.66478719860769e-16
3.45280454141114e-16
5.99644050904382e-16
8.69223383575701e-16
2.39476216666079e-16
8.16025503843594e-16
5.4767165010162e-16
6.47832619363404e-16
5.48651104486901e-16
2.04929195713805e-16
4.79011193925864e-16
9.46454581417778e-16
8.35882970988252e-16
1.36462317961155e-16
3.88954272499885e-16
5.3564014686119e-16
3.67522569254801e-16
1.3200343004479e-15
7.85641694956414e-16
5.41238290663246e-16
8.41580140053932e-16
4.96761657978838e-16
1.18804538383312e-15
1.24763422493899e-15
5.99633005011258e-16
9.62189228992534e-16
1.08586356183743e-15
6.14319887087852e-16
3.29930403678477e-16
4.66614170236782e-16
3.94033440326174e-16
5.69287652756764e-16
1.87945000306777e-15
1.59435994134383e-15
5.21784633593307e-16
2.96380932691545e-16
1.37433501148352e-15
1.13598482565417e-15
1.37054697598913e-15
1.44379026461627e-15
6.93577939495176e-16
5.12516446010291e-16
8.85506441119118e-16
3.6864914759662e-16
2.19037089587379e-15
1.05936594318185e-15
1.00235733350912e-15
5.41351857829955e-16
1.0322268359777e-15
3.98164730683567e-16
1.50144466847153e-15
1.58724043249409e-15
1.40848647847252e-15
8.27555862745584e-16
9.14492277387622e-16
9.93329882092074e-16
1.17923420610889e-15
1.45648024773562e-15
4.68033344655542e-16
1.89934204034163e-15
1.03748859286579e-15
1.13322102180611e-15
6.98539056685101e-16
5.91925302849615e-16
9.83232916569777e-16
2.02768781656245e-16
1.40647567769798e-15
1.38697473325148e-15
6.79415463581856e-16
4.62147792179214e-16
1.60042779579286e-15
2.12358245421952e-15
8.89074842434277e-16
7.20885504694422e-16
1.21311841314808e-15
8.88309696468214e-16
4.10780879840753e-16
9.99214408476483e-16
1.69907009977102e-15
9.61927836713901e-16
3.91910734002849e-16
1.51681258009848e-15
1.15957246978314e-15
7.9409117372694e-16
1.35530333944885e-15
8.60903128792617e-16
8.0275528453546e-16
5.40176680869172e-16
5.71230551166057e-16
2.17185628451715e-15
1.12764849303239e-15
1.0942679002523e-15
4.38661650693633e-16
7.59233950941468e-16
8.100220468709e-16
8.51552998680442e-16
1.0968748170718e-15
7.84754849141767e-16
2.40345267828143e-16
1.38937567754271e-15
7.83324264125382e-16
1.01735294722992e-15
8.05639564576909e-16
5.75166205984992e-16
1.71919088104008e-15
7.44292184774266e-16
1.31255113649439e-15
3.9269050515935e-16
4.55002648219111e-16
8.67893827372982e-16
1.3979798840709e-16
1.08638913157149e-15
9.22584134586843e-16
6.18730664448524e-16
9.48377843569417e-16
1.23281973835271e-15
1.05666793306996e-15
7.95483025509183e-16
4.40150239994177e-16
1.35303761020559e-15
6.4941191001245e-16
4.74372921782403e-16
8.02540788056276e-16
9.43821651331177e-16
8.73556103804049e-16
2.01958924376522e-16
4.08781295724296e-16
1.33066881993045e-15
1.17145982240051e-15
1.0025238112222e-15
4.64904468211778e-16
1.11765365926908e-15
4.19775217720472e-16
3.22286891764824e-16
6.65777460080004e-16
2.9839518527334e-16
5.02422615790634e-16
6.95012996030105e-16
9.51426725558451e-16
5.97384635110844e-16
7.03575250817863e-16
1.01057334525551e-15
6.87688113002011e-16
3.15898739462971e-16
1.4319468557276e-16
3.95281508105457e-16
8.11121010196611e-16
7.69128135629495e-16
2.21686910737502e-16
4.97903430574872e-16
5.28147248740477e-16
5.43892123039723e-16
1.25491183347713e-15
5.19125378546401e-16
3.50705651889984e-16
8.66979971467289e-16
8.02702899216152e-16
1.01993560993107e-15
9.93731181571924e-16
4.83296530085082e-16
9.22862064721101e-16
7.63006173416036e-16
5.47983741931324e-16
3.23742528256214e-16
3.93817039002263e-16
3.64442165221959e-16
6.93239552943185e-16
1.84219375761041e-15
9.61640258506179e-16
3.78507070853285e-16
3.05952936659597e-16
1.1052111570307e-15
1.17071491954686e-15
1.31390399462183e-15
1.4315547553837e-15
6.15489907167739e-16
4.55606009099593e-16
8.82218404524587e-16
4.49109066159442e-16
2.04725596947923e-15
9.5841570550929e-16
1.09580425736265e-15
4.79019527445045e-16
3.10601489631035e-16
4.02867610608884e-16
1.55831338134236e-15
1.10680460742364e-15
1.39253786114398e-15
8.99922736346215e-16
1.25919047679604e-15
9.40233499369518e-16
1.18686254012068e-15
1.33247506453336e-15
8.34074958719612e-16
1.77770126591977e-15
1.08712252092262e-15
5.50428127746231e-16
8.0476397053389e-16
5.42311325694933e-16
8.00008590687387e-16
2.37501793471472e-16
1.88391616539875e-15
1.36539586982223e-15
6.61865387208959e-16
6.86403580409343e-16
1.65656530603563e-15
1.81316881389171e-15
8.41021144972549e-16
8.72938831571761e-16
1.47240244994096e-15
8.57496862824989e-16
8.72449141814238e-16
1.08446014077788e-15
6.16045421055176e-16
8.69436137656545e-16
4.8451120679171e-16
)
;

boundaryField
{
    inlet
    {
        type            calculated;
        value           nonuniform List<scalar> 
24
(
0.296074653309628
0.296074660193621
0.296074653311781
0.296074653312281
0.29607466019833
0.296074653317358
0.296074653309628
0.244325077579972
0.21795580059448
0.296074660193621
0.244325077948858
0.217955801154445
0.296074653311781
0.244325077579313
0.21795580058987
0.296074653312281
0.244325077579547
0.217955800591015
0.29607466019833
0.244325077954773
0.217955801158644
0.296074653317358
0.244325077587631
0.217955800597547
)
;
    }
    outlet
    {
        type            calculated;
        value           nonuniform List<scalar> 
156
(
2.8474837075937e-16
9.57198593243742e-16
4.65740323799055e-16
8.41296365064223e-16
2.47231044628264e-16
5.43773519770968e-16
9.60799332134048e-16
6.65314061808756e-16
7.66142452367758e-16
7.77338798215994e-16
3.72661994349524e-17
8.16590128475259e-16
4.96820602927659e-16
4.99372704593319e-16
6.24205521559426e-17
2.03557871811026e-16
2.56680428820174e-16
7.46181644368118e-17
4.70417467253594e-17
1.52813779645196e-16
4.65088070304345e-17
1.12371967986132e-16
4.81461106726546e-16
2.77732062288058e-16
3.18174133011695e-16
4.32247334923579e-17
3.43515318584703e-16
9.83499821851095e-17
7.71661791784169e-17
1.89339625903456e-16
3.08757767409939e-16
9.95719144055404e-16
1.23166647596261e-15
8.99166258762982e-16
5.83783125886222e-16
5.52009440350678e-16
9.37841789924416e-16
1.11609813744954e-15
6.22312874916809e-16
3.68443294695746e-16
1.44352240195642e-16
1.06195550343437e-15
1.07427148462757e-15
5.88884267618695e-16
1.13413445226392e-16
3.96762620371858e-16
1.06068300262117e-15
4.73467872370868e-16
7.82154661700706e-16
3.23630262548422e-16
8.08410600509294e-16
8.19771674406323e-16
5.54761647194812e-16
6.06634449443842e-16
7.1127746545884e-16
6.21497298370389e-17
7.09749847290047e-16
5.38319524301863e-16
5.04835856311144e-16
3.53463315375578e-17
1.8618427479316e-16
2.01926007424367e-16
8.74712367279368e-17
2.23095231556374e-17
3.05152419706462e-17
1.11445571654039e-16
5.64573757932837e-17
4.78799276509198e-16
3.03287718340059e-16
3.01389471000441e-16
5.42442967054486e-17
3.63071497803131e-16
1.04969828477997e-16
8.89952174346497e-17
1.72597224406625e-16
8.22963577600721e-17
8.61263979770959e-16
1.3358948391403e-15
9.38746046942818e-16
6.86675503665717e-16
5.22841761372907e-16
8.70124237054331e-16
9.79041710699015e-16
5.53963957985769e-16
3.28167901539427e-16
1.51784528369407e-16
1.13596316879976e-15
1.08203164703556e-15
6.02968006746823e-16
1.00876868994733e-16
1.37576606695304e-17
6.15032609365793e-16
2.4525090935843e-16
4.63587757997091e-16
5.48943852856592e-16
2.05559028400618e-16
9.20093125590165e-17
1.48132974973274e-17
2.60404867696674e-16
3.66400589167356e-16
6.95648970771141e-16
5.06993117557799e-16
4.24709022436958e-16
1.8188222524563e-16
1.55346863487295e-19
2.92343671307414e-16
3.78583035460902e-18
9.8564541961852e-16
8.32927560894491e-16
1.75666475384736e-16
1.99681878031765e-16
9.15405446918438e-18
6.07925170618684e-16
1.59669953067201e-16
5.18830772698801e-16
5.23861017843958e-16
1.34651190981759e-16
1.04762234013427e-16
1.25947812158171e-17
2.48478046742526e-16
3.39853954783835e-16
5.35176689968114e-16
3.84739035303258e-16
4.28786208972702e-16
1.60128114426893e-16
5.33458694384837e-19
3.16492838372353e-16
4.03184414735221e-17
9.68994478872142e-16
8.70307297653552e-16
2.30046880494997e-16
2.50058452310198e-16
2.17034374844749e-16
8.14814171028487e-16
3.03349460503894e-16
7.00033184565163e-16
3.58849205698319e-16
6.82094540177483e-17
4.79367062259598e-16
3.2070903338633e-16
1.21619737390823e-16
1.33543664181609e-15
7.90154804043824e-16
7.48836832395192e-16
3.17139790420773e-16
1.18664461957106e-15
4.51277593937119e-16
6.24808015590526e-16
2.98411846082901e-16
2.9702784071972e-17
5.1635006265498e-16
1.94516865677511e-16
1.02676475022681e-17
1.16226163632671e-15
9.20725049118972e-16
6.32878173504828e-16
)
;
    }
    sides
    {
        type            calculated;
        value           nonuniform List<scalar> 
84
(
0.407491513025353
0.400894375933359
0.355627574833791
0.407491515044099
0.400894377577125
0.355627575197591
0.407491513028005
0.400894375939758
0.355627574843356
0.407491513027401
0.400894375938386
0.355627574842121
0.407491515043393
0.40089437757565
0.355627575199487
0.407491513033117
0.400894375947648
0.355627574850685
0.205779505564346
0.0377397287674932
0.00120375994289948
0.205779504210791
0.0377397283361
0.00120375992952068
0.205779505575194
0.0377397287715858
0.00120375994317304
0.205779505575739
0.0377397287721
0.00120375994320571
0.205779504214455
0.0377397283386643
0.00120375992970402
0.205779505583599
0.0377397287765475
0.00120375994358257
7.38411357048059e-06
7.38411343446017e-06
7.38411357485703e-06
7.38411357379621e-06
7.38411343583588e-06
7.38411357801522e-06
1.8372040486771e-08
1.83720373836948e-08
1.8372039576911e-08
1.83720405950705e-08
1.83720373233485e-08
1.8372040276958e-08
1.05282022554876e-09
1.05282109697865e-09
1.05282126715878e-09
1.05282071647001e-09
1.05282120008415e-09
1.05282080579536e-09
6.48967151889716e-10
6.48966254633249e-10
6.48967003372117e-10
6.48966960493304e-10
6.48966128940255e-10
6.48966491254198e-10
1.01845398515459e-10
1.01848502538297e-10
1.0184725822248e-10
1.01846805896277e-10
1.01848453880155e-10
1.01846291884716e-10
2.28397268329579e-12
2.27895889548057e-12
2.28194314745629e-12
2.28151437888998e-12
2.27893321667354e-12
2.28275179701943e-12
4.34685138334277e-14
3.87105320440051e-14
4.07379157130076e-14
4.34043444876084e-14
3.88793118297067e-14
4.18189002369279e-14
1.44545122731661e-15
2.89272407043892e-15
2.84922577676818e-15
2.00546785951225e-15
2.68688288464486e-15
2.06189612426124e-15
)
;
    }
}


// ************************************************************************* //
