/*--------------------------------*- C++ -*----------------------------------*\
  =========                 |
  \\      /  F ield         | OpenFOAM: The Open Source CFD Toolbox
   \\    /   O peration     | Website:  https://openfoam.org
    \\  /    A nd           | Version:  11
     \\/     M anipulation  |
\*---------------------------------------------------------------------------*/
FoamFile
{
    format      ascii;
    class       surfaceScalarField;
    location    "0.0000099775";
    object      phi;
}
// * * * * * * * * * * * * * * * * * * * * * * * * * * * * * * * * * * * * * //

dimensions      [1 0 -1 0 0 0 0];

internalField   nonuniform List<scalar> 
2478
(
0.000245735901688135
-3.05603233863498e-05
-2.81327196781367e-12
7.41729811251646e-16
-0.000272883649437301
0.000175998244614393
-2.62141588323172e-05
-1.92589507167461e-12
9.13440330319037e-17
-3.08713232518373e-05
-3.14592251446193e-13
-1.51030717879946e-15
9.40321529595391e-05
0.000150128548819437
-7.4854683177918e-06
-1.70276775535508e-12
7.65555153992015e-16
-0.000172774131265647
0.000111253455456301
-7.76961296369182e-06
-1.50966337954944e-12
-3.69035314459754e-16
-8.56301212908629e-06
2.78152067351156e-15
-4.99884964151598e-16
5.91112393080768e-05
5.23129974005682e-05
-1.30191129686826e-12
-6.34068535523835e-16
-5.88807559233009e-05
3.84497934521937e-05
-1.08008618867304e-12
4.97323536519101e-16
-9.03614477080344e-14
2.27885744129297e-16
2.03171299351301e-05
0.000245735901016995
-3.05603167634676e-05
2.81299888439147e-12
-0.000272883648240748
0.000175998245479087
-2.62141538197588e-05
1.92593974080411e-12
-3.08713238881119e-05
3.14798642882252e-13
9.40321529663778e-05
0.000150128551486833
-7.48546473996255e-06
1.7026223909488e-12
-0.000172774133893946
0.000111253456762038
-7.769610197265e-06
1.50944182283549e-12
-8.56301194263481e-06
-2.20246184571421e-15
5.91112391000779e-05
5.23129975549944e-05
1.30597805790209e-12
-5.88807561141547e-05
3.8449793519454e-05
1.08091996724874e-12
8.85785178929635e-14
2.03171299180497e-05
0.000245735901687292
-3.05603233835274e-05
5.76714240599352e-16
-0.000272883649436511
0.000175998244616641
-2.62141588301294e-05
6.39543756494887e-16
-3.08713232496249e-05
2.69288714591087e-16
9.40321529623419e-05
0.00015012854882076
-7.48546831959477e-06
3.64373245118066e-16
-0.000172774131267016
0.000111253455457688
-7.76961296495736e-06
1.05102558600745e-15
-8.56301212753492e-06
2.53852386160325e-16
5.91112393091938e-05
5.23129974008553e-05
-2.09110073007279e-15
-5.88807559239996e-05
3.8449793452196e-05
-1.34958775925564e-15
5.23534124038938e-17
2.03171299350623e-05
0.000245735901687393
-3.05603233852186e-05
-2.81220177895426e-12
-0.000272883649437213
0.000175998244616182
-2.62141588307035e-05
-1.92554685304186e-12
-3.08713232488232e-05
-3.15293621831574e-13
9.40321529622702e-05
0.000150128548820554
-7.48546831870554e-06
-1.70146131884229e-12
-0.000172774131267507
0.000111253455457522
-7.7696129627712e-06
-1.50895656104814e-12
-8.56301212668717e-06
1.92742685960895e-15
5.91112393092762e-05
5.23129974012997e-05
-1.30480611666879e-12
-5.8880755923947e-05
3.84497934525876e-05
-1.07914301409814e-12
-8.79945937079171e-14
2.03171299348701e-05
0.000245735901016193
-3.0560316762486e-05
2.81289894805622e-12
-0.000272883648241448
0.00017599824547856
-2.62141538179827e-05
1.9254562950554e-12
-3.08713238845818e-05
3.13559372694047e-13
9.40321529662407e-05
0.000150128551486626
-7.48546473800923e-06
1.70268305206035e-12
-0.000172774133893763
0.000111253456762274
-7.76961019467119e-06
1.5087457379357e-12
-8.56301194040542e-06
-3.06803465011801e-15
5.91112391003355e-05
5.23129975557214e-05
1.30623173410539e-12
-5.88807561142609e-05
3.84497935204622e-05
1.08371024285479e-12
9.05792368194325e-14
2.03171299183238e-05
0.000245735901688048
-3.0560323379824e-05
-0.000272883649438192
0.000175998244617236
-2.62141588280311e-05
-3.08713232486295e-05
9.40321529627006e-05
0.00015012854882046
-7.48546831587897e-06
-0.000172774131265947
0.00011125345545908
-7.76961296409932e-06
-8.56301212701217e-06
5.91112393100159e-05
5.23129974010746e-05
-5.88807559236063e-05
3.84497934531068e-05
2.03171299358652e-05
2.45384683480176e-05
-1.22462763986564e-06
9.78514009186346e-14
-1.88110432178951e-15
1.20551026361131e-06
-8.31671774138181e-08
4.43820869812372e-15
-2.18615815554546e-16
2.03938135245863e-09
3.97631146759059e-17
-2.62919026827735e-18
1.01190542175562e-08
1.5068368899175e-05
-6.61975874871268e-07
1.62618562279254e-13
-1.07013464929751e-15
7.22346934703335e-07
-5.20384191688122e-08
1.58481897310353e-14
-4.05843978215636e-16
4.29241707634734e-10
-2.25359553067406e-15
1.79598089872224e-16
5.93631755635638e-09
5.13793572981826e-06
2.06296066926175e-13
-6.34187797762809e-15
2.42111712742442e-07
2.23639466320757e-14
-1.61448545504816e-15
4.61599074935704e-17
-7.01478805598121e-17
1.94537493131483e-09
2.45384680882392e-05
-1.22462809066772e-06
-9.8163962852435e-14
1.20551024565808e-06
-8.31671983437718e-08
-4.47057213297242e-15
2.03938353186763e-09
-4.21348069282179e-17
1.01190539681897e-08
1.50683687388093e-05
-6.61976288265819e-07
-1.62483728186578e-13
7.22346925431814e-07
-5.20384617237746e-08
-1.59187441874098e-14
4.29241565848195e-10
2.30951325772e-15
5.93631740069883e-09
5.13793572552582e-06
-2.09627332311245e-13
2.42111711470304e-07
-2.27800634258757e-14
-6.86028924640203e-17
1.94537491466216e-09
2.45384683496763e-05
-1.22462763899232e-06
-2.03802903372963e-16
1.20551026378344e-06
-8.31671771535283e-08
-3.69577415545996e-17
2.03938125626279e-09
-1.81603863891322e-18
1.01190542213509e-08
1.50683688999966e-05
-6.61975869322619e-07
-1.73065771782999e-17
7.22346934807262e-07
-5.20384176430822e-08
2.05998412772246e-18
4.29241762495364e-10
-1.01643953670516e-17
5.93631756023918e-09
5.13793572962126e-06
3.97766672030619e-17
2.4211171274991e-07
3.47391928591512e-16
-3.24718550659409e-17
1.94537493148763e-09
2.45384683499195e-05
-1.22462763807785e-06
9.70901012581696e-14
1.20551026382009e-06
-8.31671769160067e-08
4.31905487936757e-15
2.03938128214812e-09
3.81910215258019e-17
1.01190542214729e-08
1.50683689001552e-05
-6.61975870767427e-07
1.61883025972913e-13
7.22346934838115e-07
-5.20384181801689e-08
1.57537963793933e-14
4.29241727353661e-10
-2.21667844670093e-15
5.93631755990036e-09
5.13793572980038e-06
2.05538602630895e-13
2.42111712794677e-07
2.18168717683667e-14
2.94089839286693e-17
1.94537493161976e-09
2.45384680891157e-05
-1.2246280920066e-06
-9.84555725792521e-14
1.20551024580253e-06
-8.31671990966147e-08
-4.47114133911297e-15
2.03938352061903e-09
-3.65647182670736e-17
1.01190539700328e-08
1.50683687398187e-05
-6.61976287726591e-07
-1.63115682527866e-13
7.22346925624232e-07
-5.20384621301607e-08
-1.61010256776589e-14
4.29241516096868e-10
2.35050965236711e-15
5.9363174033619e-09
5.13793572644025e-06
-2.08753817725928e-13
2.42111711664911e-07
-2.33992648391093e-14
-4.46013668706224e-17
1.94537491722698e-09
2.45384683510437e-05
-1.22462764117804e-06
1.20551026404885e-06
-8.31671777208371e-08
2.03938118646728e-09
1.01190542265957e-08
1.50683689012346e-05
-6.61975867233402e-07
7.2234693504576e-07
-5.20384173218196e-08
4.29241823210686e-10
5.93631756622939e-09
5.13793573028085e-06
2.42111712882013e-07
1.94537493389998e-09
1.36530626973323e-10
-5.23263073495817e-17
1.49077798716757e-19
3.20308463590659e-11
3.7230424269224e-11
-6.98768300166908e-17
4.66206934168767e-18
1.86550082835728e-11
-1.33356867215717e-17
-4.20128341838133e-19
6.03983609477675e-12
1.3653076488384e-10
5.23263073495817e-17
3.20308406941095e-11
3.72304253534262e-11
7.18826040357889e-17
1.86550051800441e-11
1.27800331081729e-17
6.03983582711434e-12
1.36530624669394e-10
-8.13151629364128e-20
3.20308462235406e-11
3.7230425245006e-11
-6.09863722023096e-19
1.86550082429153e-11
-1.0842021724855e-19
6.03983609138862e-12
1.36530625618071e-10
-5.22720972409574e-17
3.20308463997235e-11
3.72304249604029e-11
-6.99445926524711e-17
1.8655008337783e-11
-1.26445078366122e-17
6.03983610155301e-12
1.36530765073575e-10
5.24618326211423e-17
3.20308406941095e-11
3.72304246351422e-11
7.31700941156155e-17
1.86550051935967e-11
1.2807138162485e-17
6.03983584405499e-12
1.365306230973e-10
3.20308463726184e-11
3.72304258819747e-11
1.86550083513355e-11
6.03983611171741e-12
2.86496033060496e-13
-2.3039296165317e-19
1.35525271560688e-20
-2.00214722730595e-13
9.01515597199684e-14
-2.57498015965307e-19
0
-1.20648987762123e-13
-1.35525271560688e-19
-1.0842021724855e-19
-4.03302743848602e-14
2.86497279892994e-13
4.87890977618477e-19
-2.00214966676084e-13
9.01509227511921e-14
4.60785923306339e-19
-1.20649055524759e-13
2.98155597433514e-19
-4.03302642204648e-14
2.86495707799844e-13
-1.76182853028894e-19
-2.00215020886192e-13
9.01513970896425e-14
-1.62630325872826e-19
-1.20649069077286e-13
-9.48676900924816e-20
-4.0330260832333e-14
2.86496304111039e-13
-3.52365706057789e-19
-2.00214858255866e-13
9.01516681401857e-14
-3.25260651745651e-19
-1.20649028419705e-13
-2.3039296165317e-19
-4.0330277772992e-14
2.86497279892994e-13
3.25260651745651e-19
-2.00214993781138e-13
9.01509905138279e-14
3.3881317890172e-19
-1.20649082629813e-13
1.89735380184963e-19
-4.03302709967284e-14
2.8649587043017e-13
-2.00214871808393e-13
9.01515597199684e-14
-1.20649028419705e-13
-4.03302642204648e-14
-1.95107059848543e-14
-1.35525271560688e-19
-1.62630325872826e-19
-2.64253164706033e-13
-4.35895351931503e-15
-9.48676900924816e-20
-1.0842021724855e-19
-1.58741929648896e-13
-1.35525271560688e-20
-6.7762635780344e-20
-5.29895273710182e-14
-1.95102994090396e-14
-4.06575814682064e-20
-2.64253435756576e-13
-4.35903483447797e-15
-5.42101086242752e-20
-1.58741970306478e-13
-6.7762635780344e-20
-5.29895239828864e-14
-1.95100554635508e-14
1.35525271560688e-20
-2.64253408651521e-13
-4.35888575667925e-15
-2.71050543121376e-20
-1.58742010964059e-13
-2.71050543121376e-20
-5.29895273710182e-14
-1.95100283584965e-14
2.71050543121376e-20
-2.64253354441413e-13
-4.35880444151632e-15
6.7762635780344e-20
-1.58741997411532e-13
2.71050543121376e-20
-5.29895375354136e-14
-1.95102994090396e-14
2.71050543121376e-20
-2.64253517071739e-13
-4.35902128195081e-15
2.71050543121376e-20
-1.58742010964059e-13
9.48676900924816e-20
-5.29895172066228e-14
-1.95101096736594e-14
-2.64253218916141e-13
-4.35888575667925e-15
-1.58741943201424e-13
-5.29895205947546e-14
-4.17141364852935e-15
-3.3881317890172e-19
-1.21972744404619e-19
-9.93476676793004e-14
-1.3692524761591e-15
-2.71050543121376e-19
-1.76182853028894e-19
-5.92695245096517e-14
-1.89735380184963e-19
-1.89735380184963e-19
-1.96827993628138e-14
-4.17051918173705e-15
1.89735380184963e-19
-9.9347721889409e-14
-1.36898142561598e-15
2.71050543121376e-20
-5.92693483267986e-14
-8.13151629364128e-20
-1.96827824221549e-14
-4.17095286260605e-15
-1.76182853028894e-19
-9.93476947843547e-14
-1.36898142561598e-15
-1.21972744404619e-19
-5.92694296419616e-14
-9.48676900924816e-20
-1.9682795974682e-14
-4.17057339184568e-15
-9.48676900924816e-20
-9.93476134691917e-14
-1.36883234781726e-15
-9.48676900924816e-20
-5.92694025369073e-14
-4.06575814682064e-20
-1.96827722577595e-14
-4.17027523624824e-15
3.52365706057789e-19
-9.9347721889409e-14
-1.36873748012717e-15
2.57498015965307e-19
-5.92693076692172e-14
2.43945488809238e-19
-1.96827858102867e-14
-4.17111549293192e-15
-9.93475592590831e-14
-1.36904918825176e-15
-5.92694160894344e-14
-1.96827925865502e-14
-3.56103493047433e-15
8.13151629364128e-20
0
-6.55801368071307e-15
-9.97384683523728e-16
2.57498015965307e-19
4.06575814682064e-20
-3.87018162743141e-15
3.25260651745651e-19
8.13151629364128e-20
-1.26447788871553e-15
-3.56206492253819e-15
-2.84603070277445e-19
-6.55725473919233e-15
-9.98279150316028e-16
-5.42101086242752e-19
-3.8699376819426e-15
-3.52365706057789e-19
-1.26445078366122e-15
-3.5605199344424e-15
5.42101086242752e-20
-6.55782394533289e-15
-9.97425341105196e-16
-6.7762635780344e-20
-3.87008675974132e-15
-1.0842021724855e-19
-1.26446433618838e-15
-3.56079098498552e-15
2.43945488809238e-19
-6.55768842006133e-15
-9.97249158252167e-16
5.96311194867027e-19
-3.87005965468701e-15
4.60785923306339e-19
-1.26446433618838e-15
-3.5620920275925e-15
-1.35525271560688e-19
-6.55725473919233e-15
-9.98252045261716e-16
-1.76182853028894e-19
-3.8699376819426e-15
-1.49077798716757e-19
-1.26443045487049e-15
-3.56089940520277e-15
-6.55787815544151e-15
-9.97642181539693e-16
-3.87011386479563e-15
-1.2644575599248e-15
-9.41792217129533e-16
-8.13151629364128e-20
-1.62630325872826e-19
-3.01679254494092e-16
-2.35271871429354e-16
3.25260651745651e-19
1.89735380184963e-19
-1.76996004658259e-16
-6.23416249179165e-19
-2.43945488809238e-19
-5.69612716369572e-17
-9.38756451046574e-16
-3.52365706057789e-19
-2.97613496347271e-16
-2.33537147953378e-16
-8.13151629364128e-19
-1.75478121616779e-16
0
-5.68392988925526e-17
-9.39352762241441e-16
1.62630325872826e-19
-2.99402429931872e-16
-2.34025038930996e-16
6.7762635780344e-19
-1.76182853028894e-16
1.0842021724855e-19
-5.67986413110844e-17
-9.40057493653557e-16
-1.35525271560688e-19
-3.01245573625097e-16
-2.34350299582742e-16
5.14996031930615e-19
-1.76670744006513e-16
-1.35525271560688e-19
-5.68664039468647e-17
-9.38648030829325e-16
-1.89735380184963e-19
-2.97776126673144e-16
-2.33455832790441e-16
-5.96311194867027e-19
-1.75532331725403e-16
4.06575814682064e-19
-5.68799564740208e-17
-9.40599594739799e-16
-3.0026979166986e-16
-2.34431614745678e-16
-1.76670744006513e-16
-5.6920614055489e-17
-1.17635935714677e-17
-4.87890977618477e-19
-2.16840434497101e-19
2.92734586571086e-18
-2.90024081139872e-18
-5.42101086242752e-19
-1.62630325872826e-19
1.78893358460108e-18
-2.16840434497101e-19
5.42101086242752e-20
7.31836466427715e-19
-1.06251812903579e-17
-2.98155597433514e-19
6.07153216591882e-18
-2.90024081139872e-18
-2.71050543121376e-19
2.98155597433514e-18
-4.60785923306339e-19
6.50521303491303e-19
-9.75781955236954e-18
3.79470760369927e-19
5.09575021068187e-18
-2.03287907341032e-18
1.89735380184963e-19
2.43945488809238e-18
1.89735380184963e-19
6.50521303491303e-19
-1.14925430283463e-17
-2.16840434497101e-19
2.81892564846231e-18
-2.27682456221956e-18
-1.0842021724855e-19
1.73472347597681e-18
5.42101086242752e-19
6.50521303491303e-19
-1.04625509644851e-17
2.16840434497101e-19
5.85469173142172e-18
-2.81892564846231e-18
2.71050543121376e-19
2.60208521396521e-18
2.71050543121376e-20
5.6920614055489e-19
-1.06793913989822e-17
4.33680868994202e-18
-2.54787510534094e-18
2.27682456221956e-18
6.7762635780344e-19
0
3.79470760369927e-19
0
-2.71050543121376e-20
1.62630325872826e-19
3.25260651745651e-19
0
1.76182853028894e-19
1.0842021724855e-19
5.42101086242752e-20
6.09863722023096e-20
-2.81892564846231e-18
-4.06575814682064e-19
4.87890977618477e-19
-8.13151629364128e-19
-4.06575814682064e-19
3.25260651745651e-19
-2.71050543121376e-19
8.13151629364128e-20
-8.67361737988404e-19
-1.0842021724855e-19
2.98155597433514e-19
1.62630325872826e-19
-5.42101086242752e-20
2.16840434497101e-19
0
4.06575814682064e-20
6.50521303491303e-19
6.50521303491303e-19
1.0842021724855e-19
2.98155597433514e-19
5.42101086242752e-19
1.89735380184963e-19
2.98155597433514e-19
6.09863722023096e-20
-2.60208521396521e-18
-3.52365706057789e-19
3.52365706057789e-19
-5.42101086242752e-19
-3.25260651745651e-19
2.71050543121376e-19
-2.71050543121376e-19
4.74338450462408e-20
-6.50521303491303e-19
1.35525271560688e-19
1.35525271560688e-19
5.42101086242752e-20
2.71050543121376e-20
1.92532959483797e-05
-3.31683183522891e-12
3.13497058174184e-16
-9.38952034859608e-07
-9.30219714190966e-13
7.11182415041867e-16
-8.49908956147144e-13
-8.28872560865168e-17
1.925329917995e-05
3.31625769596847e-12
-9.38948740052527e-07
9.29531896332741e-13
8.50632390046735e-13
1.92532959453431e-05
6.63477519452504e-16
-9.38952039549921e-07
1.18150931746608e-15
-1.04300248993106e-16
1.92532959472163e-05
-3.31613230798722e-12
-9.3895203647843e-07
-9.28623931223393e-13
-8.5043674576471e-13
1.92532991853111e-05
3.31634974473291e-12
-9.38948737376607e-07
9.28828357543016e-13
8.50429535820263e-13
1.92532959539532e-05
-9.38952034889478e-07
-1.40946282423116e-18
-6.28837260041593e-18
-8.67361737988404e-19
2.16840434497101e-19
-5.42101086242752e-19
-4.33680868994202e-18
1.0842021724855e-19
4.33680868994202e-19
4.33680868994202e-19
-1.51788304147971e-18
-1.0842021724855e-19
1.0842021724855e-19
3.46944695195361e-18
-3.03576608295941e-18
1.62630325872826e-19
5.42101086242752e-20
-3.25260651745651e-18
-5.85469173142172e-18
-3.79470760369927e-19
-1.62630325872826e-19
4.33680868994202e-19
6.50521303491303e-19
5.42101086242752e-20
3.25260651745651e-19
2.38524477946811e-18
-3.46944695195361e-18
-2.16840434497101e-19
-5.42101086242752e-20
-2.05998412772246e-18
-1.04083408558608e-17
5.42101086242752e-20
-5.42101086242752e-19
0
-4.33680868994202e-18
0
1.0842021724855e-19
2.27682456221956e-18
-4.33680868994202e-18
-1.62630325872826e-19
-1.0842021724855e-19
-2.49366499671666e-18
-3.68628738645072e-18
-5.42101086242752e-20
5.42101086242752e-20
-4.33680868994202e-19
-2.16840434497101e-18
-1.62630325872826e-19
5.42101086242752e-20
2.49366499671666e-18
-1.95156391047391e-18
-1.0842021724855e-19
-5.42101086242752e-20
0
-5.20417042793042e-18
-1.62630325872826e-19
5.42101086242752e-20
-3.46944695195361e-18
0
0
-6.50521303491303e-19
2.16840434497101e-19
5.42101086242752e-19
6.50521303491303e-19
7.58941520739853e-19
2.16840434497101e-18
4.87890977618477e-19
3.79470760369927e-19
-4.33680868994202e-19
0
2.16840434497101e-19
-3.79470760369927e-19
7.58941520739853e-19
-3.25260651745651e-18
5.96311194867027e-19
-5.42101086242752e-20
1.0842021724855e-19
-6.72205346941013e-18
-5.42101086242752e-20
-1.62630325872826e-19
-3.25260651745651e-19
-4.11996825544492e-18
2.16840434497101e-19
-7.58941520739853e-19
-8.67361737988404e-19
-4.77048955893622e-18
-2.16840434497101e-19
-5.96311194867027e-19
3.25260651745651e-19
-3.03576608295941e-18
5.96311194867027e-19
-5.42101086242752e-20
4.33680868994202e-19
-3.90312782094782e-18
7.58941520739853e-19
4.33680868994202e-19
1.19262238973405e-18
-5.20417042793042e-18
1.62630325872826e-19
4.33680868994202e-19
-7.58941520739853e-19
-6.50521303491303e-18
1.0842021724855e-19
5.42101086242752e-20
-1.0842021724855e-19
-4.11996825544492e-18
2.71050543121376e-19
-6.50521303491303e-19
1.0842021724855e-19
-2.60208521396521e-18
2.16840434497101e-19
-4.33680868994202e-19
3.25260651745651e-19
-3.03576608295941e-18
1.62630325872826e-19
1.62630325872826e-19
-8.67361737988404e-19
0
5.42101086242752e-20
-2.16840434497101e-19
-1.95156391047391e-18
1.0842021724855e-19
-3.25260651745651e-19
3.25260651745651e-19
-2.16840434497101e-19
4.33680868994202e-19
-4.33680868994202e-19
-1.40946282423116e-18
-3.68628738645072e-18
2.16840434497101e-19
-7.58941520739853e-19
0
6.50521303491303e-19
3.79470760369927e-19
1.0842021724855e-19
2.16840434497101e-19
-1.51788304147971e-18
4.87890977618477e-19
1.0842021724855e-19
-3.25260651745651e-19
8.67361737988404e-19
3.25260651745651e-19
-1.0842021724855e-19
0
2.16840434497101e-18
3.79470760369927e-19
0
0
3.03576608295941e-18
4.87890977618477e-19
0
3.25260651745651e-19
-1.30104260698261e-18
4.33680868994202e-19
-5.42101086242752e-20
7.58941520739853e-19
-8.67361737988404e-19
5.96311194867027e-19
0
-1.0842021724855e-19
1.95156391047391e-18
5.42101086242752e-20
0
0
0
2.16840434497101e-19
-1.62630325872826e-19
1.0842021724855e-19
3.03576608295941e-18
2.71050543121376e-19
2.16840434497101e-19
1.0842021724855e-19
-1.0842021724855e-18
6.50521303491303e-19
1.0842021724855e-19
3.46944695195361e-18
3.79470760369927e-19
3.79470760369927e-19
0
1.0842021724855e-19
1.62630325872826e-19
1.30104260698261e-18
-5.42101086242752e-19
8.13151629364128e-19
0
1.84314369322536e-18
3.79470760369927e-19
3.79470760369927e-19
-1.0842021724855e-19
2.49366499671666e-18
-4.87890977618477e-19
8.67361737988404e-19
1.0842021724855e-19
9.75781955236954e-19
1.19262238973405e-18
3.25260651745651e-19
0
1.95156391047391e-18
1.0842021724855e-19
4.87890977618477e-19
-5.42101086242752e-20
-7.58941520739853e-19
0
-3.79470760369927e-19
0
7.58941520739853e-19
-1.51788304147971e-18
4.33680868994202e-19
0
6.50521303491303e-19
5.42101086242752e-20
1.13841228110978e-18
0
3.14418630020796e-18
1.62630325872826e-18
3.79470760369927e-19
0
1.84314369322536e-18
-4.87890977618477e-19
-8.67361737988404e-19
1.0842021724855e-19
-8.67361737988404e-19
3.25260651745651e-19
-1.0842021724855e-18
-5.42101086242752e-20
-8.67361737988404e-19
-1.19262238973405e-18
1.0842021724855e-19
2.71050543121376e-19
-1.40946282423116e-18
1.51788304147971e-18
2.71050543121376e-19
2.71050543121376e-19
1.95156391047391e-18
-1.0842021724855e-18
4.33680868994202e-19
-1.0842021724855e-18
2.92734586571086e-18
7.58941520739853e-18
1.24683249835833e-18
-1.40946282423116e-18
-2.60208521396521e-18
1.62630325872826e-19
1.51788304147971e-18
-1.30104260698261e-18
2.71050543121376e-19
-1.40946282423116e-18
-3.03576608295941e-18
-1.0842021724855e-19
1.30104260698261e-18
-2.16840434497101e-18
5.42101086242752e-20
-1.19262238973405e-18
-4.11996825544492e-18
0
2.16840434497101e-18
-3.03576608295941e-18
2.16840434497101e-19
6.50521303491303e-19
-4.11996825544492e-18
0
-2.81892564846231e-18
-7.80625564189563e-18
0
6.50521303491303e-19
-3.46944695195361e-18
5.42101086242752e-20
-1.95156391047391e-18
-4.11996825544492e-18
1.0842021724855e-19
-4.33680868994202e-19
-2.38524477946811e-18
2.16840434497101e-19
1.19262238973405e-18
1.30104260698261e-18
1.62630325872826e-19
-4.33680868994202e-19
-6.50521303491303e-19
5.42101086242752e-20
-1.73472347597681e-18
5.42101086242752e-20
1.0842021724855e-19
-4.55364912443912e-18
5.42101086242752e-20
-6.50521303491303e-19
-4.98732999343332e-18
1.0842021724855e-19
1.19262238973405e-18
-2.81892564846231e-18
-2.71050543121376e-19
-5.42101086242752e-19
-5.63785129692462e-18
-6.50521303491303e-19
3.25260651745651e-19
-7.58941520739853e-18
-2.71050543121376e-19
-8.67361737988404e-19
-7.58941520739853e-18
-5.96311194867027e-19
9.75781955236954e-19
-4.11996825544492e-18
-4.87890977618477e-19
-2.16840434497101e-19
-6.72205346941013e-18
-8.13151629364128e-19
-8.67361737988404e-19
-7.58941520739853e-18
-2.16840434497101e-19
1.51788304147971e-18
-4.33680868994202e-18
2.71050543121376e-19
-9.75781955236954e-19
-1.01915004213637e-17
-2.16840434497101e-19
1.0842021724855e-19
-6.72205346941013e-18
-5.96311194867027e-19
3.25260651745651e-19
-4.11996825544492e-18
-4.87890977618477e-19
-6.50521303491303e-19
-4.33680868994202e-18
2.71050543121376e-19
-3.03576608295941e-18
-5.42101086242752e-20
3.25260651745651e-19
-2.81892564846231e-18
-1.0842021724855e-19
5.42101086242752e-19
-1.30104260698261e-18
-4.87890977618477e-19
-5.42101086242752e-19
-7.15573433840433e-18
-8.13151629364128e-19
-2.16840434497101e-19
-1.0842021724855e-18
-4.87890977618477e-19
2.16840434497101e-19
-4.55364912443912e-18
-5.42101086242752e-19
2.16840434497101e-19
-1.51788304147971e-18
-3.25260651745651e-19
2.16840434497101e-19
-4.55364912443912e-18
-4.33680868994202e-19
0
-1.73472347597681e-18
-7.04731412115578e-19
-2.16840434497101e-19
-3.25260651745651e-18
-4.33680868994202e-19
-2.16840434497101e-19
-5.20417042793042e-18
-5.96311194867027e-19
-2.16840434497101e-19
-3.68628738645072e-18
2.71050543121376e-19
6.50521303491303e-19
-4.33680868994202e-18
-2.71050543121376e-19
6.50521303491303e-19
-1.73472347597681e-18
0
-6.50521303491303e-19
-7.37257477290143e-18
-5.96311194867027e-19
-2.38524477946811e-18
1.62630325872826e-19
7.58941520739853e-19
-2.16840434497101e-19
1.40946282423116e-18
-1.19262238973405e-18
-7.58941520739853e-19
-2.92734586571086e-18
1.24683249835833e-18
-5.42101086242752e-19
-2.16840434497101e-18
-1.19262238973405e-18
-9.75781955236954e-19
-2.49366499671666e-18
9.21571846612679e-19
-4.33680868994202e-19
-1.40946282423116e-18
-9.21571846612679e-19
-4.33680868994202e-19
-2.71050543121376e-18
9.21571846612679e-19
4.87890977618477e-19
-8.67361737988404e-19
-5.42101086242752e-20
-4.33680868994202e-19
-9.75781955236954e-19
-8.13151629364128e-19
-9.75781955236954e-19
-1.40946282423116e-18
2.71050543121376e-19
-3.25260651745651e-19
-1.19262238973405e-18
-5.42101086242752e-19
8.67361737988404e-19
5.42101086242752e-19
1.13841228110978e-18
1.02999206386123e-18
-4.33680868994202e-19
-8.67361737988404e-19
5.42101086242752e-20
-2.71050543121376e-18
2.71050543121376e-19
-5.42101086242752e-20
-1.73472347597681e-18
1.13841228110978e-18
-2.16840434497101e-19
-6.50521303491303e-19
-9.54097911787244e-18
-1.0842021724855e-19
-3.03576608295941e-18
-1.01915004213637e-17
-3.79470760369927e-19
-1.95156391047391e-18
-6.72205346941013e-18
-2.16840434497101e-19
1.51788304147971e-18
-3.90312782094782e-18
-5.42101086242752e-20
9.75781955236954e-19
-3.90312782094782e-18
5.42101086242752e-20
-2.27682456221956e-18
-7.37257477290143e-18
-2.71050543121376e-19
4.33680868994202e-19
-3.68628738645072e-18
0
2.92734586571086e-18
-3.68628738645072e-18
1.62630325872826e-19
-1.51788304147971e-18
-7.58941520739853e-18
-3.25260651745651e-19
2.05998412772246e-18
-3.46944695195361e-18
0
-3.25260651745651e-18
-3.90312782094782e-18
0
-3.25260651745651e-19
-3.25260651745651e-18
-5.42101086242752e-20
3.25260651745651e-18
-3.03576608295941e-18
5.42101086242752e-20
-3.25260651745651e-19
-4.77048955893622e-18
0
-2.38524477946811e-18
0
-8.67361737988404e-19
-5.85469173142172e-18
-1.62630325872826e-19
-1.19262238973405e-18
-5.63785129692462e-18
-3.25260651745651e-19
0
-3.46944695195361e-18
2.16840434497101e-19
1.40946282423116e-18
-3.25260651745651e-18
2.16840434497101e-19
-8.67361737988404e-19
-6.50521303491303e-18
-2.16840434497101e-19
-3.25260651745651e-19
-2.16840434497101e-18
-2.71050543121376e-19
1.0842021724855e-19
-2.16840434497101e-18
5.42101086242752e-19
5.42101086242752e-19
-1.30104260698261e-18
-1.0842021724855e-19
1.0842021724855e-19
-6.50521303491303e-18
-5.42101086242752e-19
1.0842021724855e-18
-5.42101086242752e-18
-1.0842021724855e-19
-1.0842021724855e-18
-5.20417042793042e-18
0
0
-1.51788304147971e-18
7.04731412115578e-19
2.16840434497101e-18
3.03576608295941e-18
3.25260651745651e-19
5.42101086242752e-19
-6.28837260041593e-18
-1.0842021724855e-19
2.16840434497101e-19
1.0842021724855e-19
-7.58941520739853e-19
-3.03576608295941e-18
2.16840434497101e-19
-6.50521303491303e-19
4.33680868994202e-19
4.87890977618477e-19
-1.0842021724855e-19
-2.16840434497101e-19
9.75781955236954e-19
1.0842021724855e-19
2.38524477946811e-18
1.0842021724855e-19
2.16840434497101e-19
-8.67361737988404e-19
0
-5.42101086242752e-19
2.16840434497101e-19
-1.62630325872826e-19
0
3.03576608295941e-18
5.42101086242752e-20
0
3.90312782094782e-18
0
-1.0842021724855e-19
-1.51788304147971e-18
1.0842021724855e-19
9.75781955236954e-19
-1.30104260698261e-18
0
-5.42101086242752e-19
1.30104260698261e-18
-5.42101086242752e-20
7.58941520739853e-19
1.0842021724855e-18
5.42101086242752e-20
-5.42101086242752e-19
2.16840434497101e-19
-2.16840434497101e-19
1.40946282423116e-18
-1.73472347597681e-18
5.42101086242752e-20
-1.51788304147971e-18
-1.62630325872826e-19
-5.42101086242752e-20
1.0842021724855e-19
8.67361737988404e-19
-5.96311194867027e-19
1.0842021724855e-19
6.50521303491303e-19
4.87890977618477e-19
1.62630325872826e-19
2.16840434497101e-18
-4.33680868994202e-19
-1.0842021724855e-19
2.60208521396521e-18
1.24683249835833e-18
0
1.95156391047391e-18
1.0842021724855e-19
-1.0842021724855e-19
-1.40946282423116e-18
1.0842021724855e-19
0
4.33680868994202e-19
-1.24683249835833e-18
1.0842021724855e-19
1.0842021724855e-18
5.42101086242752e-20
0
3.03576608295941e-18
1.62630325872826e-18
0
1.84314369322536e-18
-3.79470760369927e-19
5.42101086242752e-20
-7.58941520739853e-19
3.79470760369927e-19
5.42101086242752e-20
-6.50521303491303e-19
-1.0842021724855e-18
-2.16840434497101e-19
-2.49366499671666e-18
1.57209315010398e-18
5.42101086242752e-20
1.0842021724855e-19
-3.25260651745651e-19
-3.36102673470506e-18
-1.95156391047391e-18
-8.45677694538693e-18
-1.24683249835833e-18
-9.75781955236954e-19
-4.33680868994202e-18
0
-2.16840434497101e-19
-1.51788304147971e-18
0
2.05998412772246e-18
-3.25260651745651e-18
1.0842021724855e-19
-1.95156391047391e-18
-7.15573433840433e-18
-1.62630325872826e-19
4.33680868994202e-19
-3.68628738645072e-18
-1.0842021724855e-19
1.40946282423116e-18
-3.25260651745651e-18
-2.16840434497101e-19
-1.19262238973405e-18
-7.58941520739853e-18
0
3.25260651745651e-19
-3.90312782094782e-18
1.0842021724855e-19
3.03576608295941e-18
-3.90312782094782e-18
0
-3.03576608295941e-18
-3.68628738645072e-18
-1.0842021724855e-19
-2.16840434497101e-19
-1.30104260698261e-18
-1.0842021724855e-19
2.38524477946811e-18
-1.95156391047391e-18
-1.0842021724855e-19
-2.16840434497101e-19
-5.42101086242752e-18
-1.62630325872826e-19
-1.95156391047391e-18
0
-7.58941520739853e-19
-2.60208521396521e-18
2.16840434497101e-19
5.42101086242752e-19
1.51788304147971e-18
4.87890977618477e-19
-6.50521303491303e-19
0
2.71050543121376e-19
-1.0842021724855e-19
-2.60208521396521e-18
5.96311194867027e-19
2.16840434497101e-19
-3.90312782094782e-18
7.04731412115578e-19
1.0842021724855e-18
-2.16840434497101e-18
7.04731412115578e-19
-1.19262238973405e-18
-4.98732999343332e-18
-1.0842021724855e-19
3.25260651745651e-19
-1.30104260698261e-18
7.58941520739853e-19
4.33680868994202e-19
-3.68628738645072e-18
7.58941520739853e-19
1.19262238973405e-18
-4.98732999343332e-18
0
-7.58941520739853e-19
-6.28837260041593e-18
1.0842021724855e-19
0
-3.90312782094782e-18
2.71050543121376e-19
1.0842021724855e-19
-2.60208521396521e-18
2.16840434497101e-19
1.0842021724855e-18
-3.03576608295941e-18
5.42101086242752e-20
-3.03576608295941e-18
-1.62630325872826e-19
-1.0842021724855e-19
-1.95156391047391e-18
-1.0842021724855e-19
2.16840434497101e-19
0
3.79470760369927e-19
-1.62630325872826e-18
-3.25260651745651e-18
2.71050543121376e-19
-4.33680868994202e-19
1.0842021724855e-18
4.33680868994202e-19
3.25260651745651e-19
0
4.87890977618477e-19
3.25260651745651e-19
3.46944695195361e-18
4.87890977618477e-19
1.0842021724855e-19
3.03576608295941e-18
4.33680868994202e-19
1.0842021724855e-19
3.46944695195361e-18
5.96311194867027e-19
3.25260651745651e-19
-1.0842021724855e-18
4.87890977618477e-19
8.67361737988404e-19