/*--------------------------------*- C++ -*----------------------------------*\
  =========                 |
  \\      /  F ield         | OpenFOAM: The Open Source CFD Toolbox
   \\    /   O peration     | Website:  https://openfoam.org
    \\  /    A nd           | Version:  11
     \\/     M anipulation  |
\*---------------------------------------------------------------------------*/
FoamFile
{
    format      ascii;
    class       volVectorField;
    location    "0.0000099775";
    object      U;
}
// * * * * * * * * * * * * * * * * * * * * * * * * * * * * * * * * * * * * * //

dimensions      [0 1 -1 0 0 0 0];

internalField   nonuniform List<vector> 
900
(
(-13.280972757146 -23.0033165530328 167.951443285786)
(-9.32505317363685 -16.1514637891915 155.315772147208)
(-2.15067544754087 -3.72507867602003 135.094165271091)
(-6.03033616303784 -10.4448470104443 159.766716262228)
(-4.08391705639098 -7.07354995899248 156.433858833941)
(0.449492667321794 0.778544332080828 139.693831047677)
(-3.07242653186667 -5.32159735118659 158.032528955947)
(-2.37172969480235 -4.10795499910418 160.766427972743)
(-0.121467999649809 -0.210388505126717 143.886055911771)
(-26.561946653323 1.57758825951865e-10 167.951445587431)
(-18.6501069842929 2.73165117788065e-10 155.315773265273)
(-4.30135027880706 5.90078771403814e-10 135.094165472924)
(-12.0606752708929 3.85873533336874e-10 159.766719721573)
(-8.16783605252609 9.11395088492622e-10 156.433860581589)
(0.898985367582768 6.12428372886189e-10 139.693831375217)
(-6.14485377594915 -1.6855608880279e-09 158.032529659708)
(-4.74346036664751 4.26669050433113e-10 160.766428566275)
(-0.242936123815381 1.35291538923166e-09 143.886055890723)
(-13.2809727574996 23.00331655362 167.951443288374)
(-9.32505317489162 16.1514637896112 155.315772150776)
(-2.15067545176097 3.72507867623673 135.094165275565)
(-6.03033616314466 10.4448470111429 159.766716265203)
(-4.08391705806938 7.07354995824457 156.433858837446)
(0.449492662873293 -0.778544332915236 139.693831050122)
(-3.07242653256499 5.32159734756562 158.032528955131)
(-2.37172969504003 4.10795499796967 160.766427971505)
(-0.12146800111401 0.210388510259774 143.886055908383)
(13.2809727564421 23.0033165535636 167.951443287892)
(9.32505317391534 16.1514637897422 155.315772150135)
(2.15067545134899 3.72507867648693 135.094165274998)
(6.03033616140712 10.4448470105031 159.766716265249)
(4.08391705579105 7.0735499592 156.433858837157)
(-0.449492663693664 -0.778544331594162 139.693831050697)
(3.072426536271 5.32159734983073 158.032528956717)
(2.37172969708886 4.10795500261781 160.7664279735)
(0.121468001077595 0.21038851160655 143.88605591084)
(26.5619466524492 7.58999106730026e-10 167.951445586876)
(18.6501069837808 3.62591296712477e-10 155.315773264684)
(4.30135027875702 -1.02864846765869e-09 135.094165473686)
(12.0606752693774 1.50345268050548e-09 159.766719723899)
(8.16783605203517 -7.65436173121242e-10 156.433860583719)
(-0.898985366134947 -1.23203896886822e-09 139.693831379116)
(6.14485377894091 2.09928748943062e-09 158.032529665151)
(4.74346037056078 3.609639719635e-09 160.766428572387)
(0.242936124674547 2.62116513794818e-09 143.886055898338)
(13.2809727563002 -23.003316553859 167.951443291717)
(9.3250531733572 -16.1514637895384 155.315772154929)
(2.15067544915839 -3.7250786758497 135.09416527923)
(6.03033616125408 -10.4448470116242 159.766716269803)
(4.0839170559085 -7.07354995839086 156.433858843335)
(-0.449492665871403 0.778544331235273 139.693831055652)
(3.07242653311924 -5.32159734872729 158.032528961584)
(2.37172969375384 -4.10795499620128 160.766427978799)
(0.121467998977506 -0.210388505615618 143.886055917818)
(-0.0298464037170563 -0.0516954704660143 76.1719729712985)
(0.00472374994178782 0.00818176743591977 13.5219822695192)
(-0.000410649193773992 -0.000711266036949867 0.42783808332124)
(0.822596116648463 1.42477800475084 78.7379828213942)
(0.0687546755943192 0.119086558053137 13.7674456121341)
(-0.000824034366982301 -0.00142727090349036 0.424793679136817)
(0.412107569648108 0.713790888065591 81.4477272580423)
(0.0419169671194783 0.0726022551194641 14.0627693257127)
(-0.000206404123264271 -0.000357504622723678 0.42341324228032)
(-0.0596924869643668 1.40818947428459e-09 76.1719724254548)
(0.00944752310931355 3.81314976457719e-10 13.5219821127169)
(-0.000821299069761143 6.93983559693586e-12 0.427838078564429)
(1.64519244979132 1.72460828557838e-09 78.7379824544616)
(0.137509395811705 6.71778496478465e-10 13.7674454840362)
(-0.00164806888741942 2.03137450849593e-11 0.424793674919379)
(0.824215465534952 5.54203989941203e-09 81.4477272300619)
(0.0838339988064667 1.35448971625409e-09 14.0627692954896)
(-0.000412808395305904 3.38667947311775e-11 0.423413240273626)
(-0.0298464072556097 0.0516954689249464 76.1719729757765)
(0.00472374918361572 -0.00818176762197584 13.5219822710133)
(-0.000410649175683759 0.000711266023548104 0.427838083418562)
(0.822596111525876 -1.42477800561628 78.7379828240582)
(0.0687546737295426 -0.11908655797016 13.7674456137203)
(-0.000824034390661092 0.00142727097198149 0.424793679275129)
(0.412107553929549 -0.713790882294519 81.4477272548128)
(0.0419169604617548 -0.0726022532351304 14.0627693252581)
(-0.000206404274244422 0.000357504749686279 0.423413242281201)
(0.0298464078312565 0.051695469261843 76.1719729759414)
(-0.00472374904022639 -0.00818176759897563 13.5219822711976)
(0.000410649184096554 0.00071126602378612 0.427838083430165)
(-0.822596111557094 -1.4247780058182 78.7379828246109)
(-0.0687546737712345 -0.119086558151455 13.7674456140066)
(0.000824034392644645 0.0014272709515273 0.424793679282866)
(-0.412107552022703 -0.713790885879544 81.4477272560311)
(-0.0419169598164461 -0.072602255041406 14.0627693264439)
(0.000206404395924231 0.000357504479318234 0.423413242364976)
(0.0596924857128335 -1.88142966441427e-09 76.171972426901)
(-0.00944752354532593 -5.06245182224557e-10 13.5219821136437)
(0.000821299067976359 -8.36071315819872e-12 0.427838078629605)
(-1.64519245316951 -2.34205130731125e-09 78.7379824580435)
(-0.137509397768156 -1.07800911498497e-09 13.7674454863392)
(0.00164806877817285 -1.85754852108908e-11 0.42479367508086)
(-0.824215460547309 -6.22334600926298e-09 81.4477272388188)
(-0.0838339962348203 -4.10713311692219e-09 14.0627693016249)
(0.00041280838973296 -9.27585583638223e-11 0.423413240778931)
(0.0298464058632186 -0.0516954669482312 76.1719729793221)
(-0.00472374909235876 0.00818176795082231 13.5219822728218)
(0.000410649204088422 -0.000711266009701829 0.427838083564183)
(-0.822596113080356 1.42477800667429 78.7379828291502)
(-0.0687546739572202 0.119086558776993 13.7674456167625)
(0.000824034471178533 -0.00142727098228774 0.424793679543212)
(-0.412107549943462 0.713790883815316 81.4477272651511)
(-0.0419169580209886 0.0726022530540127 14.0627693305635)
(0.000206404651416361 -0.000357504803271003 0.423413242699963)
(-4.51032778973889e-06 -7.81212409742177e-06 0.00262372766204165)
(-1.55114789957893e-05 -2.68666767249141e-05 0.00255840344808722)
(-7.20025473642138e-06 -1.24712611100097e-05 0.00249519886111016)
(-9.0206609753834e-06 -1.81225029688961e-14 0.00262372761371304)
(-3.10229670274647e-05 1.9913480167252e-13 0.00255840341099483)
(-1.44005250845932e-05 4.03839695204104e-13 0.00249519880750256)
(-4.51032715025534e-06 7.8121238115559e-06 0.00262372766359866)
(-1.55114788100274e-05 2.68666776424041e-05 0.00255840345029795)
(-7.20025598970559e-06 1.24712631262765e-05 0.00249519886119668)
(4.51032743446008e-06 7.81212404975026e-06 0.00262372766322052)
(1.551147881137e-05 2.68666775658351e-05 0.00255840344988924)
(7.20025675874833e-06 1.24712608207733e-05 0.0024951988616671)
(9.02066095473081e-06 1.76805595310298e-13 0.00262372761420194)
(3.10229660850742e-05 6.45966888082648e-14 0.00255840341224233)
(1.44005246058094e-05 -5.44638705816837e-13 0.0024951988113804)
(4.5103272044452e-06 -7.81212333873485e-06 0.00262372766472216)
(1.55114795973968e-05 -2.68666775571723e-05 0.00255840345297699)
(7.20025923132276e-06 -1.24712636693693e-05 0.00249519886473622)
(1.88281516513231e-09 3.26083920033289e-09 6.52799155816342e-06)
(-4.31914878518958e-08 -7.48101726672812e-08 6.33432994292043e-06)
(-2.36472358278027e-08 -4.09594020472836e-08 6.13035147022547e-06)
(3.76550739254425e-09 -2.5784787073352e-13 6.52799045549645e-06)
(-8.63833089269466e-08 -2.41461306847627e-13 6.33432932740868e-06)
(-4.72948669134213e-08 -1.8143472057299e-13 6.13035038914752e-06)
(1.88290279626293e-09 -3.26107049595369e-09 6.52799123472914e-06)
(-4.31913240799088e-08 7.48097510764194e-08 6.33432976324664e-06)
(-2.36472513702924e-08 4.09590527194434e-08 6.13035139351897e-06)
(-1.88244796938197e-09 -3.2607046288111e-09 6.52799159681775e-06)
(4.31919407411733e-08 7.48104029261262e-08 6.33433004798346e-06)
(2.36476914385376e-08 4.09594275652661e-08 6.13035150403615e-06)
(-3.76553517992059e-09 -1.14765312029432e-14 6.52799043403805e-06)
(8.63832436165905e-08 3.84424554430217e-14 6.33432933589558e-06)
(4.72950193558708e-08 -4.90039165607463e-14 6.13035044503512e-06)
(-1.88283819324625e-09 3.26092442963072e-09 6.527991483563e-06)
(4.31914995372617e-08 -7.4810139979794e-08 6.33432998782959e-06)
(2.36475988992942e-08 -4.09594741979038e-08 6.13035153146002e-06)
(4.72469905647716e-09 8.18347640228054e-09 -3.73970963850099e-07)
(3.52717557350708e-09 6.10932551696499e-09 -3.73015182004418e-07)
(1.33794909121467e-09 2.3173698171789e-09 -3.71654931313802e-07)
(9.44911248982254e-09 1.84992461408973e-13 -3.73971282064272e-07)
(7.05414823975966e-09 1.63888795003321e-13 -3.7301535355722e-07)
(2.67592349573558e-09 1.12671905553185e-13 -3.71654859638493e-07)
(4.72448191520244e-09 -8.18305083415924e-09 -3.73971346130897e-07)
(3.52697139824066e-09 -6.10889114189034e-09 -3.73015413142371e-07)
(1.33800516142367e-09 -2.31730534971784e-09 -3.71654865189026e-07)
(-4.72450110099831e-09 -8.18301641453104e-09 -3.73971150907315e-07)
(-3.52695546681077e-09 -6.10885216913083e-09 -3.73015325590878e-07)
(-1.33789174413158e-09 -2.31730422773475e-09 -3.71654960771829e-07)
(-9.44901794050892e-09 7.22914994115415e-14 -3.73971321100629e-07)
(-7.05421060978733e-09 5.5274800493092e-14 -3.73015383495404e-07)
(-2.67579251029827e-09 9.73070860037237e-14 -3.71654886071247e-07)
(-4.72434782988311e-09 8.18319809866665e-09 -3.73971180617462e-07)
(-3.52681134466594e-09 6.10900169763558e-09 -3.73015291695165e-07)
(-1.3377677497833e-09 2.31745533753518e-09 -3.71654863881998e-07)
(1.33868135316803e-09 2.31903524715632e-09 -2.305768454299e-07)
(1.534914164063e-09 2.65892369433592e-09 -2.3011346049428e-07)
(9.29732527791489e-10 1.61049466226114e-09 -2.29580608062819e-07)
(2.67702783907599e-09 9.70454857506613e-14 -2.30576534213746e-07)
(3.06941790702056e-09 1.78058293188588e-13 -2.3011310597828e-07)
(1.85907754167684e-09 2.96991096525964e-13 -2.29580522287195e-07)
(1.33857285993006e-09 -2.31876569928043e-09 -2.30576795995446e-07)
(1.53477978825612e-09 -2.65850935825435e-09 -2.30113397506285e-07)
(9.29590095929685e-10 -1.60994495376477e-09 -2.29580579678244e-07)
(-1.33829463431178e-09 -2.31852720156886e-09 -2.30576784771948e-07)
(-1.53445273515796e-09 -2.65834971869459e-09 -2.3011339002684e-07)
(-9.29275935040888e-10 -1.60995431033973e-09 -2.29580548210541e-07)
(-2.67687372520843e-09 2.13163030053094e-13 -2.30576491338389e-07)
(-3.06919424767075e-09 1.66023865750101e-13 -2.30113067872267e-07)
(-1.85872008647478e-09 2.44199945805787e-13 -2.29580466822156e-07)
(-1.33828397904598e-09 2.31906717898782e-09 -2.30576612661224e-07)
(-1.5344491687769e-09 2.65877141021197e-09 -2.30113300718106e-07)
(-9.2917984943599e-10 1.61033036623564e-09 -2.29580608863733e-07)
(1.30798229059138e-10 2.26194608596623e-10 -3.61869809585389e-08)
(2.535386560293e-10 4.38375272871119e-10 -3.57929565498575e-08)
(1.69591466273329e-10 2.93235092323934e-10 -3.53207197215651e-08)
(2.61776264512993e-10 1.27625063874811e-13 -3.61880803968644e-08)
(5.07884704936607e-10 -2.66559496551941e-14 -3.57940563773713e-08)
(3.39848202956719e-10 -9.7043772882516e-15 -3.53209100398292e-08)
(1.30657460012353e-10 -2.25634857883751e-10 -3.61876457738088e-08)
(2.53773761217424e-10 -4.38166257745555e-10 -3.57934894656669e-08)
(1.69819332839737e-10 -2.93158773005982e-10 -3.53208567938724e-08)
(-1.30868805961763e-10 -2.25914255400827e-10 -3.61874825412614e-08)
(-2.53614090756718e-10 -4.38142144899585e-10 -3.57933902032014e-08)
(-1.69621031296286e-10 -2.92951156475045e-10 -3.53209313821299e-08)
(-2.61789508866072e-10 1.59627957734201e-13 -3.6188063011161e-08)
(-5.07862346894598e-10 2.62994062428035e-13 -3.57940459980799e-08)
(-3.39758330696753e-10 2.41594194154932e-13 -3.53209893195869e-08)
(-1.30815385928933e-10 2.25995824703092e-10 -3.61872995806518e-08)
(-2.53886114357763e-10 4.38518829211008e-10 -3.57932763139296e-08)
(-1.69791449642517e-10 2.93450896692917e-10 -3.53207698694817e-08)
(1.7270808105229e-12 3.9719778410103e-12 -8.11534488427566e-10)
(5.19380297213133e-12 1.00529060899656e-11 -7.97355077153118e-10)
(3.94224688466077e-12 7.61259422328679e-12 -7.73762091516614e-10)
(2.95407643874744e-12 4.74822677820691e-13 -8.09759008986728e-10)
(9.61148558800734e-12 4.29903270248806e-13 -7.95882300668705e-10)
(7.11539172806784e-12 4.42305219649348e-13 -7.7337483168822e-10)
(1.36091107006169e-12 -2.97290905568402e-12 -8.10818315088113e-10)
(4.58286132221396e-12 -8.89603857450701e-12 -7.96763433261156e-10)
(3.65156055450648e-12 -6.65751743162113e-12 -7.73532686510287e-10)
(-1.71726073188042e-12 -3.3570751223165e-12 -8.10663786482252e-10)
(-5.01422281743701e-12 -9.17479770135807e-12 -7.96616198258503e-10)
(-3.77908559275527e-12 -6.77969993807233e-12 -7.73409156720256e-10)
(-2.96826057181037e-12 -8.98167299805184e-14 -8.09749967038608e-10)
(-9.6919865940657e-12 -9.26164078225537e-14 -7.95849832775041e-10)
(-7.14693511793659e-12 2.76355705596204e-14 -7.73086473711585e-10)
(-1.27881268702282e-12 3.54461457102272e-12 -8.11103485172997e-10)
(-4.54851748668231e-12 9.51646105814584e-12 -7.96860747436079e-10)
(-3.30763239580005e-12 7.30146154262714e-12 -7.73486051072593e-10)
(1.54014396746814e-13 5.3058880192778e-14 -1.54444660250842e-11)
(1.96284070067621e-13 2.75232443362886e-13 -1.4752464309295e-11)
(-4.43841275701624e-14 -1.05097768646288e-13 -1.39467868124207e-11)
(4.57649903937573e-14 2.63295390420527e-13 -1.3752112422125e-11)
(-1.25263420447451e-14 2.9556391115232e-13 -1.38773398326689e-11)
(-1.00915860284693e-13 3.03028906190745e-13 -1.37947160203368e-11)
(-9.06669813756266e-14 4.69527384319273e-13 -1.44671819938767e-11)
(-8.81140123693893e-14 3.75685126599884e-13 -1.41803574665562e-11)
(-1.66695426817268e-13 7.11769225336594e-13 -1.36956944999598e-11)
(-3.10464473316374e-13 9.17267866525875e-14 -1.54191262129622e-11)
(-2.42398907325728e-13 1.00903445099456e-13 -1.46703115489337e-11)
(-1.46927128329648e-13 7.19957169985442e-13 -1.38715553424482e-11)
(-7.9446903045111e-14 -8.16109455550221e-15 -1.38144491641155e-11)
(1.09806606572819e-13 2.23532969168416e-14 -1.39387636498267e-11)
(2.26103758687735e-13 1.65723201126823e-13 -1.39144278451478e-11)
(8.33180673206136e-14 -1.60647916018082e-13 -1.48580788049406e-11)
(8.31813125196137e-14 1.59487503494299e-14 -1.45359145804077e-11)
(1.23894712936807e-14 -2.40828065817246e-13 -1.39851792718436e-11)
(6.42062193815342e-14 -4.74890264104347e-13 1.84777147737703e-13)
(4.08903752384717e-14 -5.35130867238714e-13 2.80854627329819e-13)
(-8.68824494499106e-14 -3.76212069221554e-13 3.83106102588925e-13)
(2.87700075633566e-13 -1.28782426199649e-14 9.86679357082673e-13)
(3.16177472042046e-13 8.45476244272894e-14 9.51827116998866e-13)
(3.7344673287352e-14 1.89718286084908e-13 5.01675854899891e-13)
(2.37977376749132e-13 5.63296160622085e-13 8.068480354765e-13)
(1.44804570650741e-13 5.59456675011656e-13 6.12385292590985e-13)
(-7.36015978174622e-14 5.28158635274771e-13 4.35673345748063e-13)
(-5.54933743100868e-14 6.74645224836341e-13 2.22608865592927e-13)
(1.08886640884942e-14 7.97300761169376e-13 1.88772047119101e-13)
(8.68776717556663e-14 6.14719304791905e-13 3.39689274727355e-13)
(-3.51929046505781e-13 1.98480853485672e-13 8.64997394625055e-13)
(-3.27089447446152e-13 9.73025498542628e-14 8.04688275004368e-13)
(-1.92016403291045e-14 -1.76951819486591e-14 3.68883869376481e-13)
(-2.07492713178728e-13 -3.96025493753114e-13 5.80403341667483e-13)
(-1.32614847339136e-13 -4.36165177541213e-13 3.85373457262877e-13)
(1.99147201791952e-15 -4.55301840818356e-13 3.21963901684987e-13)
(-10.4870118084534 -18.1640340362817 148.2792829621)
(0.95370265765407 1.65186212607884 123.565529289144)
(0.0437820336680627 0.0758336013919197 110.242567517084)
(-20.9740239318528 3.27194288177437e-10 148.279286037804)
(1.90740284373363 6.74095238636183e-10 123.565529522829)
(0.0875631991417237 -9.50344269653152e-10 110.24256780162)
(-10.4870118080309 18.1640340363515 148.279282963221)
(0.953702658655344 -1.65186212668609 123.565529288795)
(0.0437820351549905 -0.0758336008953755 110.242567514751)
(10.4870118072291 18.16403403697 148.279282963457)
(-0.953702660599052 -1.65186212406582 123.565529288933)
(-0.043782034920779 -0.0758336001542243 110.242567515331)
(20.9740239330764 9.30980892708387e-10 148.279286040036)
(-1.90740284376894 -1.34780047028463e-09 123.56552952582)
(-0.087563198194241 -9.52508209920951e-10 110.242567803745)
(10.4870118076077 -18.1640340380418 148.279282965893)
(-0.953702658866916 1.65186212619002 123.565529293008)
(-0.0437820333950826 0.0758336016205825 110.242567518635)
(-9.50887348702635e-14 1.14291164332035e-13 -3.85481610254595e-15)
(1.22078849598116e-13 2.97326529571917e-13 -1.60731381122092e-13)
(8.76154396512065e-14 1.40153794761767e-13 1.45072411477212e-14)
(2.29023936659175e-13 1.33655416627049e-13 2.57176016700831e-13)
(1.097573305742e-13 8.80866415091745e-15 2.5490285383896e-14)
(1.19289770028578e-13 9.05326922692993e-14 -1.95326416151206e-13)
(1.97351914689139e-13 2.14475235939819e-13 2.72215789431987e-13)
(2.46207765685306e-13 9.84206074062166e-14 2.50950370065363e-14)
(1.49214295121985e-13 2.11251147939708e-13 -1.27366907481566e-13)
(1.25685025456135e-13 2.16499732418213e-13 1.72017381548999e-13)
(1.70911052105709e-14 -1.92023191154984e-15 2.05534797643125e-15)
(1.40367396138818e-13 1.76485313384659e-13 -2.80822399034665e-13)
(1.02325367863812e-13 1.05889149793264e-13 1.4792544187613e-13)
(7.96185483163197e-14 9.91107325664305e-14 1.9053805481055e-13)
(-1.88177311226118e-14 1.70637797679251e-14 -2.78005797560526e-14)
(1.48631060664444e-13 3.127371326437e-13 -1.85677848983978e-13)
(1.04399717716e-13 1.34367508804711e-13 -8.06668700871983e-14)
(1.29028898936257e-13 3.57301395146781e-14 2.6576048819216e-14)
(3.13457213411261e-13 2.83176446416958e-13 1.15483553152459e-13)
(4.90186331108911e-13 6.81605689580393e-13 6.48452190712896e-14)
(2.87482361762489e-13 3.18815607181059e-13 -6.54782237094396e-14)
(3.64957560133345e-13 3.76024391027244e-13 3.65578732443921e-14)
(4.93800920259288e-13 5.25081737212158e-13 -9.56721238399137e-15)
(3.3396550211495e-13 4.27934810137716e-13 2.8924811071784e-14)
(2.95614956533751e-13 4.63592855113067e-13 1.59730255036055e-13)
(3.65610483587461e-13 5.91663858286652e-13 3.02525731614224e-14)
(2.88802242872194e-13 2.91366639071917e-13 -1.03760879300015e-13)
(2.40221890462809e-13 1.83881641213934e-13 2.96732767115652e-14)
(3.50934974263913e-13 4.34774826542533e-13 1.28494060871143e-13)
(1.93667219152853e-13 2.91670529025017e-13 7.8325767559788e-14)
(9.69307022871389e-14 1.09038799561589e-13 -5.77668946163821e-14)
(1.0773459077247e-13 -1.63278989907373e-13 7.39173087070884e-15)
(2.14876986400505e-13 -1.76108880263212e-14 -2.75261836218392e-14)
(1.87101598066985e-13 -1.16825752985291e-14 -8.25397775709157e-14)
(3.02883956924395e-13 3.11031198137429e-13 3.25269429446431e-14)
(2.08526088278728e-13 -2.45628423177505e-15 2.07797838408053e-14)
(2.03282031374952e-13 -5.9536356584621e-14 3.01271705363815e-14)
(8.98544713273008e-14 -2.10706436474141e-13 -2.87192800494471e-14)
(2.18812313552628e-13 1.4629562147378e-13 -7.46061623440471e-15)
(2.72170496203027e-13 1.94944066992164e-13 1.64290208420781e-13)
(1.10172904683496e-13 1.09782157642554e-13 9.7959739509555e-14)
(1.24754009158935e-13 8.10154614112264e-14 -1.25597970048172e-15)
(2.37939777133456e-15 -1.39917691672473e-13 -2.08879449816228e-15)
(1.83865752857162e-13 -2.30192991500666e-14 6.93639401345302e-14)
(-9.77016722549302e-14 -6.05383598822947e-14 4.88900358114119e-14)
(1.63738826654703e-13 5.54927665811269e-14 -2.17570696889142e-13)
(2.32378634002573e-13 -8.86471563738441e-14 -7.37807526282265e-14)
(2.7878716186597e-13 1.05686790092526e-13 -4.7510181062566e-15)
(2.30329212938109e-13 -2.12716227375631e-13 -2.82378616843329e-14)
(1.68253600114597e-13 -5.6083677772707e-14 6.03275869736652e-14)
(1.84122608081213e-13 -7.28021268595089e-14 1.1730483026617e-13)
(8.42463154703886e-15 -1.84403023820225e-13 1.09931566035122e-13)
(-2.09534587532047e-14 -2.74784396931778e-13 -1.5768269394895e-13)
(2.00980610473356e-13 -2.2277735209991e-13 -2.18572605658533e-13)
(1.25847074135735e-13 -6.39080506985556e-14 2.90682118143339e-13)
(-5.43338261697127e-14 8.68625801040401e-14 1.01355747313829e-13)
(6.9391026218556e-14 2.29697548176708e-13 4.07871119027131e-15)
(9.09909981400892e-14 9.75127911410928e-14 -5.65803455537104e-14)
(9.52628544507274e-14 8.21452698660044e-15 5.40344783064096e-14)
(-1.21961351530351e-13 1.77782893021862e-13 9.48409663517891e-14)
(-4.90225192685455e-13 -1.39099796137203e-13 3.74088738097209e-13)
(-3.02831649519395e-14 -1.87354422533104e-13 9.60502573384464e-14)
(6.3155857039771e-15 -4.41064165071204e-14 -1.34258505093459e-14)
(-4.49419319852209e-15 3.43782105038852e-14 1.53984639161822e-14)
(-2.30000639321751e-14 1.2730018439609e-13 2.3875848600431e-14)
(-1.19796189488551e-15 -3.24920510843294e-14 -5.22521774909868e-15)
(2.212366450559e-14 5.1720500180233e-14 1.24284682998694e-14)
(-6.04652810199851e-16 1.16982214970404e-13 3.23576005866712e-13)
(3.98402747345914e-14 -5.31656434872488e-14 -1.4385795196141e-13)
(7.49423200157299e-14 -3.00645937923332e-15 -1.32902155793512e-13)
(-1.48792143944467e-14 -8.43729772463309e-15 -4.36410212297307e-14)
(1.34717924111603e-14 3.28502614658797e-14 -2.26497411425505e-13)
(-4.2189470892713e-14 3.34221837887569e-14 1.0061617238339e-13)
(-3.23565264186483e-14 -3.12324392269178e-14 7.50621830008701e-14)
(-6.27403967262068e-14 -1.62841519488736e-14 -1.84779096218171e-13)
(-5.79774664091515e-14 -1.14939761997313e-13 1.42640957529394e-13)
(5.49709998687279e-13 -1.19130314039688e-13 -3.40461145666672e-14)
(3.23236667676502e-13 -4.86721120585956e-15 -1.39853264818029e-14)
(6.00109354588185e-13 2.31142060926613e-14 4.96560349992811e-15)
(6.48331677614674e-13 7.79805629113135e-14 2.23048646613609e-14)
(7.33548251112976e-13 1.6169894761913e-14 -1.89907761621147e-14)
(5.07481510676151e-13 7.08428297234625e-14 2.20999493675525e-14)
(7.75539313623363e-13 5.82124503195128e-14 1.48398233832648e-13)
(1.03147359629311e-12 -6.10225817667794e-14 -9.8080349070245e-14)
(5.55854616156347e-13 -1.35093414557352e-14 -3.68045302976849e-14)
(7.99988928375702e-13 -1.38472698462114e-14 -1.48079000806654e-14)
(6.21397320567819e-13 6.17321635808078e-14 -1.08383255010984e-13)
(2.85676060953373e-13 4.15120458774426e-14 9.41198773733399e-14)
(3.38270439231556e-13 -4.98366630593767e-14 3.66759467282169e-14)
(3.02276237852682e-13 -1.97814507755936e-14 -1.54842890136663e-13)
(4.31625138565091e-13 -5.38226830466586e-14 1.04793365715982e-13)
(4.33427898696854e-13 -1.94441459853434e-14 3.22022709433874e-14)
(5.58970210353789e-13 1.18103096400761e-13 1.40591379710746e-14)
(3.91521911561431e-13 3.19093329217052e-14 -1.16474828791634e-13)
(7.19927408415006e-13 4.47337824259462e-14 -3.15521911506989e-14)
(5.50639537071911e-13 5.40249674871077e-15 5.79616280248426e-14)
(4.81405360070526e-13 5.74512119908224e-14 5.28901921014836e-14)
(5.05276427962394e-13 2.99982425990737e-14 1.62941822921276e-14)
(6.4158974806679e-13 -2.67404893187138e-14 -4.06504855613299e-14)
(5.81196625986761e-13 8.37406226693236e-15 -6.44487595806752e-14)
(8.13582623454585e-13 -1.39749554172838e-15 -9.94657444233665e-14)
(6.74070620618878e-13 4.08720479779884e-14 6.86220967442522e-14)
(3.37379557307195e-13 -3.00556261022899e-14 2.08409501448804e-13)
(6.35986667628463e-13 -4.38183666033341e-14 -1.95333631440471e-14)
(3.97832186758013e-13 -1.18827082200164e-13 -1.96840635299452e-13)
(2.59473260505614e-13 -1.93465102896217e-14 3.58521607218375e-14)
(6.07101165508175e-13 -8.66915543538682e-15 -9.26085014077186e-14)
(8.49692625245361e-13 6.9908890368355e-14 4.97213318198746e-14)
(5.67760227210387e-13 2.49845568057485e-14 -2.70533176204351e-14)
(5.75363977425097e-13 2.89267665077441e-14 -1.02367156921178e-13)
(5.73402292013568e-13 5.65045225243095e-15 3.01952287416577e-14)
(5.86411882495017e-13 3.89251247926516e-14 4.77976826546985e-14)
(4.73956701245617e-13 1.66644618149108e-15 7.81506997564062e-14)
(6.40295999918321e-13 -1.79328978383914e-14 -1.36752053688759e-13)
(6.49669231393885e-13 3.51773208789378e-15 -8.71632189420911e-14)
(2.78862806320813e-13 6.45468118888447e-15 -8.71454006267016e-14)
(4.1452157923423e-13 4.38483978441593e-14 1.40273702376083e-13)
(5.86444898507994e-13 -6.20882992738451e-15 1.1995726555027e-13)
(8.46912738227981e-13 -5.28250566858282e-14 -5.86175353731491e-14)
(4.07008690752985e-13 -8.89017594616243e-14 7.01109825033994e-14)
(-9.15671371985895e-14 -1.14511048686785e-13 8.06487327768094e-14)
(2.25527480602179e-13 -1.37444820388856e-13 -3.97271239208588e-13)
(2.10065925697645e-13 -2.62766155731001e-13 -4.28200358644976e-13)
(2.5905367216448e-13 -2.06375271255843e-13 6.98880268927477e-15)
(8.13759542407303e-14 -1.00798043913417e-13 2.55733472754375e-13)
(1.95882002077683e-13 -8.25538584898279e-14 -6.46192769641475e-14)
(1.65582534581295e-13 -2.63765618135104e-13 -1.72431850857636e-13)
(2.31997359810557e-13 -2.66840917343869e-13 2.72818177356135e-13)
(2.05423966855778e-13 -9.65411792115152e-14 1.21559931886944e-13)
(8.63078863359326e-14 -9.83761959653844e-14 2.67520711058747e-14)
(4.18233249669012e-14 -1.30823804756885e-14 -5.66895254551203e-14)
(1.59696575091642e-13 -2.58506444821535e-13 -3.35229813309994e-13)
(1.65550998440741e-13 -2.99871636272987e-13 2.47131678835688e-13)
(8.70934863146271e-14 -7.18715885091006e-14 2.90595192579639e-13)
(-3.40112855192085e-15 2.79976752271397e-15 -8.45288589565192e-14)
(4.04632309166365e-13 -7.1357790206943e-13 -1.19256945181218e-13)
(5.80633180258632e-13 -7.26019863143487e-13 -3.28174746046521e-13)
(3.9050183742817e-13 -4.52157963951327e-13 -1.90686988859287e-13)
(3.04393449493556e-13 -2.83966347326703e-13 5.57672593745932e-14)
(3.93438027425091e-13 -4.62976174757239e-13 9.15973940217992e-14)
(4.21824507470815e-13 -4.59749241111638e-13 -1.01124157974735e-13)
(2.92459144605912e-13 -3.39673711436407e-13 -5.22534148497597e-14)
(3.0540293635871e-13 -2.09907728864193e-13 1.16380128848025e-13)
(5.70367206194538e-13 -6.70819187225886e-13 8.07216773935124e-14)
(3.52225485965789e-13 -4.71353951199018e-13 6.18489870244169e-14)
(3.77720872442386e-13 -5.71959001181149e-13 -4.09224556558879e-14)
(2.40413968914314e-13 -2.903958206696e-13 -1.91334056566969e-13)
(1.13616464475614e-13 -1.50083133548653e-14 1.58331540907338e-13)
(4.47524471537828e-13 -5.30423176505755e-13 2.79483156421796e-13)
(1.34447661263757e-13 -2.0484026208812e-13 -4.11600209851473e-14)
(2.42927838620574e-13 -3.97896411459908e-13 -8.70491812239864e-14)
(2.24945406425142e-13 -9.69947417236689e-14 -2.75458814680715e-13)
(1.64995612682258e-13 9.63938564361776e-15 -1.00350601594629e-13)
(1.67461989066588e-13 1.1030966217223e-13 -3.49623529429178e-14)
(3.20273365728016e-13 -2.19706162295572e-13 2.01759623350316e-14)
(2.0956285254684e-13 7.56256482473542e-14 -4.29717337720733e-14)
(7.24941857006126e-14 2.10920972365534e-13 -2.62193585190724e-15)
(3.23237687943686e-14 3.28328052149183e-13 3.24015754216041e-14)
(3.21726916268787e-13 -2.37243285439338e-13 -6.08154621580395e-14)
(3.05910350509885e-13 -1.65034092178921e-13 7.95394997761754e-14)
(9.06403248593667e-14 -9.07524460479815e-14 1.08297664556634e-14)
(1.74261466805529e-15 6.28065857948233e-14 1.76704186995223e-14)
(-7.12244101421178e-14 2.85922772992893e-13 4.38852452590269e-14)
(2.74440509092489e-13 -1.15507851729781e-13 1.24549562029799e-13)
(-1.12164456357675e-15 -1.23868445999294e-15 -4.20879511990794e-16)
(2.72186542336366e-13 -1.23530655243064e-13 -1.81585899174471e-13)
(2.24349270079102e-13 1.52096138187106e-13 -1.46504264801089e-13)
(8.58066219915878e-14 1.61794239123713e-13 8.29281203678885e-16)
(8.66592848481475e-14 4.53968940368686e-13 -7.62754604624201e-15)
(1.27666949367381e-13 9.06605099533788e-14 4.74959974807204e-14)
(2.04469548679445e-13 -1.1686333078697e-14 1.15858084867371e-13)
(-3.67127646888529e-15 1.45391912051344e-13 1.29746157104142e-13)
(-7.35543836714277e-14 3.40039009105264e-13 -1.16232587514371e-13)
(2.4863716755294e-13 2.21937917991697e-13 -2.23524956474015e-13)
(1.2529585138414e-13 1.42343915502155e-14 2.67360401612514e-13)
(-9.31553058810264e-14 -6.81549006510629e-14 9.1755355869834e-14)
(1.3013416456571e-14 -1.82530175273822e-13 4.47601082172186e-15)
(2.33106641922763e-13 -2.98078280520949e-13 1.04936684110834e-14)
(2.24300283905598e-13 -1.93070603058526e-13 1.19135795141971e-13)
(1.98382187463081e-13 -5.63887823741763e-13 9.49961642837922e-14)
(1.21227946379815e-13 -1.61774389585213e-13 -2.1034894642168e-14)
(-1.21597446323581e-13 -2.87553311035824e-13 -3.14286226969552e-13)
(-8.02865771518955e-14 -1.42109984396936e-13 -5.56533038790455e-14)
(-2.30278027777751e-13 -1.68258978038291e-13 7.40404467050754e-14)
(-9.28386138917609e-14 -7.2910485460587e-14 2.27434259115828e-14)
(-1.84350894617571e-13 -2.21908339619968e-13 -3.10670871460464e-14)
(-1.72265895306495e-13 -2.04288991833394e-13 1.74907196670158e-13)
(-1.84171515649965e-13 -1.02432364141595e-13 3.8520639765627e-14)
(-1.22612983507014e-13 -1.74975432520717e-13 -4.48606853516557e-14)
(-1.11080393756997e-13 -1.66011444290798e-13 2.36260441054825e-13)
(-3.01899923910369e-14 1.32823483747868e-15 -8.30469768017423e-15)