/*--------------------------------*- C++ -*----------------------------------*\
  =========                 |
  \\      /  F ield         | OpenFOAM: The Open Source CFD Toolbox
   \\    /   O peration     | Website:  https://openfoam.org
    \\  /    A nd           | Version:  11
     \\/     M anipulation  |
\*---------------------------------------------------------------------------*/
FoamFile
{
    format      ascii;
    class       volScalarField;
    location    "0.0000800073";
    object      Ma;
}
// * * * * * * * * * * * * * * * * * * * * * * * * * * * * * * * * * * * * * //

dimensions      [0 0 0 0 0 0 0];

internalField   nonuniform List<scalar> 
900
(
0.799894887262167
0.801919984985913
0.80235393774573
0.799530759479695
0.801722526046577
0.802258115747037
0.798814212744072
0.801301853975363
0.801928019252412
0.799894935113153
0.801920050061234
0.802354601531644
0.799530811843966
0.80172272581425
0.802258530241642
0.79881424002271
0.801301917974802
0.801928188659475
0.799894888050778
0.801919982376878
0.802353937796989
0.799530758470523
0.80172252640384
0.802258118453025
0.798814211805874
0.801301854690109
0.801928022049067
0.799894939370783
0.801920068647642
0.802354636744562
0.79953081600182
0.801722741761251
0.802258554650823
0.798814243943057
0.801301920883443
0.801928188505833
0.799894883596024
0.801920009132142
0.802353947550989
0.799530763239585
0.801722530781425
0.802258112943305
0.798814219864734
0.801301851599906
0.801928006459061
0.79989493816754
0.801920068195083
0.802354635383319
0.799530815629133
0.801722740713389
0.802258553147811
0.798814244214575
0.801301920281224
0.801928185900308
0.801301768832482
0.795971718344893
0.792412194895632
0.801277522174157
0.795993785347651
0.792432843293766
0.801130447259886
0.796009082003398
0.792458344964675
0.801300185217393
0.795973055767874
0.7924064595476
0.801277374250389
0.795993322176554
0.792431586116845
0.801129052622595
0.796007088397377
0.792460965014715
0.801301722709089
0.795971711811907
0.792412087430754
0.801277494530242
0.795993765472715
0.792432785514129
0.801130424772947
0.79600908877539
0.792458344494827
0.801300305457353
0.795973234687189
0.792406456800004
0.801277544484786
0.79599350000777
0.792431719924476
0.801129029139477
0.796006512210181
0.792461299354343
0.801302108609315
0.795971767932142
0.792412857161421
0.801277727497973
0.7959939286427
0.79243321807983
0.801130618093928
0.796009077497502
0.79245837639083
0.801300316548463
0.795973235612739
0.792406457408457
0.801277564297886
0.795993514709617
0.792431748153205
0.801129024925501
0.796006430362186
0.792461355306451
0.791758483838665
0.791779312403492
0.791816474269119
0.791748667452627
0.79177677311622
0.791818296056169
0.791758356067803
0.791779277281719
0.791816494066189
0.791748808705906
0.791776911430652
0.791818376122418
0.791759050013537
0.791779424928792
0.791816363271319
0.791748845223777
0.79177694396461
0.791818390660528
0.799712805438071
0.799726938392665
0.799752023663991
0.799707391746481
0.799725380075467
0.79975161565981
0.799712741318012
0.799726913746625
0.799752026796496
0.799707588263009
0.79972547839626
0.799751645615265
0.799713125097454
0.799727060889747
0.799752019761251
0.799707629486843
0.799725499450395
0.799751651106923
0.816502853533322
0.816513519942867
0.816532027817326
0.816505647963477
0.816511718673588
0.816529440446061
0.816502880276703
0.816513550361509
0.816532048691737
0.816505665340039
0.816511703793605
0.816529394313097
0.816502711130398
0.816513366858962
0.816531934839111
0.816505672216132
0.816511702554381
0.816529383081242
0.83788004971198
0.837884486914351
0.837910255924891
0.837878509062777
0.837887011039258
0.837905854930221
0.837880061173365
0.837884501999196
0.837910264809245
0.837878489366909
0.837886989993639
0.837905804496478
0.83787998849791
0.837884412625876
0.837910214660845
0.837878486168351
0.837886986009961
0.837905794239729
0.864374492744797
0.864367989630072
0.864363423634302
0.864379535265744
0.864371969940081
0.864366709850632
0.864374501943443
0.864367997566293
0.864363428555807
0.864379541578384
0.864371928844944
0.86436667999852
0.864374449193429
0.864367950955117
0.864363399791019
0.864379542556162
0.864371920378171
0.864366674022115
0.902321266857332
0.902367476287218
0.902395041579062
0.902316863233988
0.902363215886623
0.902389386364027
0.902321273748508
0.902367484001093
0.902395048848184
0.902316838712484
0.902363176501376
0.902389338923758
0.902321227187644
0.902367435460366
0.902395001508037
0.902316836426625
0.902363170301369
0.902389330193691
0.948717516779072
0.94890229741447
0.949056967624618
0.948835233754106
0.948961244761664
0.949065069603886
0.948717523405066
0.948902304463564
0.949056975727176
0.948835191051182
0.948961193187999
0.949065012462967
0.948717479875571
0.948902258913246
0.949056923094422
0.948835181494964
0.948961182504663
0.949065001210063
1.0174453327911
1.0170363897579
1.01658455161875
1.01721154612087
1.01688620981269
1.01657412084538
1.01744533813883
1.01703639524649
1.01658455692406
1.01721150258649
1.01688617578346
1.01657408767508
1.01744530193519
1.01703635877487
1.0165845237039
1.01721149453965
1.01688616951581
1.01657408141168
0.788387151833717
0.787865919624337
0.787072005253135
0.788387187943289
0.787865980038944
0.787072030276262
0.788387152432552
0.787865919958063
0.787072005409275
0.788387187067227
0.787865979189755
0.787072029453161
0.788387147103343
0.787865916340327
0.787072003981653
0.788387186757603
0.787865978976743
0.787072029313016
0.110998464993953
0.0664098011886801
0.196955472667926
0.310484350316393
0.388425743680074
0.372156514753526
0.319094353576131
0.577130663598179
0.797773060317247
0.631444967482643
0.341527038316343
0.0795951406104488
0.00509735752829643
5.77211709024803e-05
7.47488794365901e-08
0.169278143044623
0.527883755437964
0.670699779868966
0.674500914251834
0.692643158008075
0.708402442983624
0.696664900763011
0.526204533332249
0.628495698325599
0.568835904749596
0.323843988024207
0.110118435689616
0.0118604158115267
0.000211819607488536
4.24141034625954e-07
0.516555000220899
1.68497318159651
1.52557800072217
1.24579640059383
1.13149043669656
1.09721095435169
1.16664748163618
1.0207506440507
0.715342925178525
0.682846362342199
0.433088909458472
0.174543235036186
0.0228105930112752
0.000489735457624859
1.22450914374953e-06
2.07752509827894
3.12929704862215
2.5372570130874
1.94288847265095
1.62280596003851
1.42985061279603
1.56871798688121
1.57278310305538
0.938815827886042
0.746112907101423
0.556371928900424
0.248846545426968
0.0377899249050881
0.000905252736880835
2.5654974338696e-06
0.0900783456363994
0.188888835285698
0.427204817493139
0.473153566068013
0.449574956336877
0.389688461672056
0.343596131190892
0.532049893425184
0.775365058925043
0.625244579723879
0.321190274680063
0.0620753800496327
0.00312663121924737
3.15504195278937e-05
4.76097753931018e-08
0.115685519279179
0.596844720725049
0.750162566176463
0.793595838676822
0.735820533579277
0.70363275607255
0.625802907085581
0.462432353796626
0.603598859932973
0.566512862027442
0.332482009760303
0.103713917973162
0.00855408112921073
0.000118153651179261
2.0848314574714e-07
0.628903018149986
1.39992120507849
1.23656230865
1.17703108804857
1.08019030595547
1.01720780561116
1.0726546169279
0.971078782233534
0.670066393684347
0.673003650995437
0.440931434383976
0.173096642730896
0.0189447798830038
0.000331709715548486
7.12651206937329e-07
1.67850707795134
2.54185162004048
2.01724553775314
1.71364442323724
1.4690107660551
1.36190929905024
1.53477164509506
1.57943393128489
0.967171109126666
0.749146252865609
0.564278518032765
0.252336886423918
0.0346555000006954
0.000736650900098263
1.89975125791633e-06
0.110998524493848
0.0664097436569305
0.196955411023545
0.310484376998985
0.388425699577449
0.372156389915055
0.319094236069882
0.577130586969152
0.797773013855371
0.631444930508153
0.341527027697529
0.079595141744544
0.00509735760017597
5.77211657784441e-05
7.47488677559098e-08
0.169278078513472
0.527883589160395
0.670699696628931
0.674500789107633
0.692643008392421
0.708402231226534
0.696664750910293
0.526204475022858
0.628495689852716
0.568835875890967
0.32384397603084
0.110118437436291
0.0118604165717497
0.000211819616762249
4.24141016073294e-07
0.51655493285939
1.68497303356514
1.52557801423023
1.24579620089883
1.13149019464835
1.09721067156197
1.16664732890483
1.02075046348994
0.715342859761254
0.682846349473528
0.433088894488726
0.174543231708535
0.0228105939414561
0.00048973549336952
1.22450920286278e-06
2.07752534555539
3.12929691592891
2.53725691181076
1.9428883388323
1.62280568455831
1.42985041433266
1.56871784493932
1.57278292135563
0.938815701370241
0.746112902916137
0.556371917445037
0.248846537799469
0.0377899251353297
0.000905252791581947
2.56549764366822e-06
0.0900784355700686
0.188889084444233
0.427205202091278
0.473153450769662
0.449575343101124
0.389689902294723
0.343597054488469
0.532050059879369
0.775365533845284
0.625244894347236
0.321190430178068
0.0620754316764089
0.0031266318586482
3.15502816350291e-05
4.76090197723195e-08
0.115685545943407
0.596845873594057
0.750163964018829
0.793596702875055
0.735821899550161
0.703634525145267
0.625803783152775
0.462433104573514
0.603599553421979
0.566513137199642
0.332482171558897
0.103714078426109
0.00855410756656366
0.000118153975545762
2.08482875737248e-07
0.628902353211415
1.39992402559012
1.23656526424752
1.17703241728547
1.08019231444097
1.01720989698171
1.07265568979841
0.97108069794088
0.670067488030964
0.673004031162999
0.440931619526031
0.173096772585518
0.0189448134054722
0.000331710398130607
7.12652019021254e-07
1.67850535862812
2.54185577776318
2.01725094996532
1.71364595209502
1.46901425818684
1.36191165991811
1.53477335963636
1.57943583540169
0.967172962826987
0.7491464497249
0.564278573006392
0.252336965283153
0.0346555274786964
0.000736651501077757
1.89975230022333e-06
0.110997624216762
0.0664103586442359
0.196956022809461
0.310483992042676
0.388426190880257
0.37215796162288
0.319095760078712
0.577131716316847
0.797773531826483
0.631445290542689
0.341526962201354
0.0795950519126829
0.00509735572224364
5.77213470333115e-05
7.47495964779822e-08
0.169279163396467
0.527885185259937
0.670700418808164
0.6745021388763
0.692644800236509
0.708404876318988
0.696666761126207
0.526205068583
0.628495754438607
0.56883624308521
0.323844092237632
0.110118329951018
0.0118603941565709
0.000211819434453413
4.24142036624101e-07
0.516555137900576
1.68497397063492
1.52557720952898
1.24579842986893
1.13149289750926
1.09721398301763
1.16664927946328
1.02075259936251
0.715343470911484
0.682846474208951
0.433089100817387
0.17454323804105
0.0228105654451422
0.000489734682544094
1.22450855056608e-06
2.07752148110927
3.12929714142662
2.53725743749461
1.94288973911485
1.62280857327392
1.42985256213637
1.56871951564695
1.57278507687967
0.938816932527759
0.746112895989131
0.556372071568402
0.248846643586066
0.0377899104971074
0.000905251559821583
2.56549369160693e-06
0.0900784457506287
0.188889109227374
0.427205253784985
0.473153457300352
0.449575394614088
0.389690048273298
0.343597187203155
0.532050087576285
0.775365565395789
0.625244918818872
0.321190444208034
0.0620754347461579
0.0031266318800021
3.15502761403661e-05
4.76089913495411e-08
0.115685551179008
0.596845985486363
0.750164117211924
0.793596806720671
0.735822044920686
0.703634699242634
0.625803859343717
0.462433143651983
0.603599578247697
0.566513154715711
0.332482180846479
0.103714084899759
0.00855410850853269
0.000118153986116172
2.08482869302447e-07
0.628902294799686
1.39992430560837
1.23656557397904
1.1770325729686
1.08019253450863
1.01721008963819
1.07265574982961
0.971080826070949
0.670067552282795
0.673004051839241
0.440931630413723
0.173096778772295
0.0189448146248261
0.000331710418960118
7.12652036614762e-07
1.67850518791064
2.54185620972941
2.0172515197195
1.71364612940628
1.46901463091404
1.36191187746697
1.53477347993267
1.57943597301279
0.967173105209437
0.749146464353259
0.564278580285561
0.252336970263054
0.0346555286050404
0.000736651517853468
1.89975230555758e-06
1.7199796194111
2.7634811979157
3.30088263001249
2.5986887107393
2.00446886176416
1.70201646256615
1.82474220410538
1.94756892578001
1.39013198761908
0.897195870082903
0.674971027295878
0.317107285867686
0.0533027906975582
0.00136210933363064
4.10237657055452e-06
1.54943978591139
2.39940337103072
3.22256485165842
2.98187719420896
2.19077133502363
1.89392737267223
1.98450586625662
2.12656362376019
1.67261100836973
0.964012932688325
0.724305751899102
0.366260679231663
0.0660023518502699
0.00178208712426973
5.51708083085269e-06
1.44936542575142
2.17059140903467
3.02163812440023
3.1110547164108
2.29131291759004
2.01515496617857
2.09815953576211
2.23005282365489
1.83926068686705
1.07809335449673
0.783397770732897
0.403636160128221
0.0744129154150995
0.00210410932156612
6.68465302002239e-06
1.5963473769347
2.34330468250039
2.8083874956741
2.30654695941896
1.90518359317364
1.63996991375583
1.80403613039509
1.93845855486258
1.4442883415899
0.912119435288811
0.67627841552029
0.318053186681291
0.0521930486594397
0.00126989122481557
3.6400178860375e-06
1.48731641920614
2.20389476656912
2.96065131002362
2.73303220198755
2.17819281790649
1.85681131868637
1.97957693507382
2.13689638781395
1.71509952256428
0.957393686460442
0.724078376336097
0.36893949004009
0.0666079296707343
0.00178887062744789
5.43338987297389e-06
1.44228113984503
2.1265761565424
2.99627313271737
3.03657908868974
2.3028032151913
2.02147807660684
2.09887183112363
2.24195497892247
1.85264882852175
1.08048355099521
0.790981996284856
0.409403126780978
0.0750384332788805
0.00210740405056735
6.66864159537575e-06
1.71997964700946
2.76348135082295
3.30088248546215
2.59868844712619
2.00446870286632
1.70201629897789
1.82474209705494
1.94756878277432
1.39013188684089
0.897195863733563
0.674971022898448
0.317107279064959
0.0533027900884713
0.00136210937891692
4.10237687719967e-06
1.54943980781037
2.39940343969703
3.22256480349405
2.98187692847541
2.19077137065499
1.89392728376909
1.98450581274423
2.12656359213735
1.67261098199241
0.964012937504963
0.724305752926921
0.366260676631895
0.0660023513326519
0.0017820871439837
5.51708106612685e-06
1.44936542998554
2.17059142948623
3.02163808678783
3.11105468734038
2.29131294883421
2.01515493850134
2.09815953886865
2.23005282815035
1.83926069318145
1.07809336247416
0.783397772872326
0.403636159471088
0.0744129151909259
0.00210410932588001
6.68465311169071e-06
1.59634715932914
2.34330375623944
2.80839258963264
2.30655137361005
1.90518612666593
1.63997177453759
1.80403771491938
1.93845993383717
1.44428968669583
0.912119515205777
0.676278348068704
0.318053210663978
0.0521930623184387
0.00126989149866312
3.64001836721963e-06
1.48731634053512
2.20389419443779
2.96065376673294
2.73303718739682
2.17819266563413
1.85681287313027
1.97957833554585
2.13689770216625
1.71510040026635
0.957393541249688
0.724078307354727
0.368939497028828
0.0666079361112226
0.00178887051396035
5.43338893230847e-06
1.44228111748639
2.12657581172826
2.99627430255386
3.03658075735705
2.30280325170437
2.02147861160378
2.09887209153544
2.24195515901732
1.85264889740242
1.08048341398538
0.790981989660956
0.409403153191635
0.0750384351805605
0.00210740366722127
6.66863916115241e-06
1.71997936722017
2.76347979554468
3.30088412454798
2.59869127022548
2.00447024943714
1.70201809070932
1.82474332382387
1.94757046796958
1.39013275617419
0.897195892520776
0.674971069587438
0.317107385450356
0.0533027953905385
0.00136210834582634
4.10237083209946e-06
1.54943962309093
2.3994027549295
3.22256543585829
2.98187989108552
2.19077065360458
1.89392819887757
1.98450648443564
2.12656392901977
1.67261103175586
0.964012822671994
0.724305734467287
0.366260726573108
0.0660023597736772
0.00178208665756408
5.51707634712341e-06
1.44936540972489
2.17059121784604
3.02163859182008
3.11105473406719
2.29131246796109
2.01515518615986
2.09815956554262
2.23005276051909
1.83926048173883
1.07809321567354
0.783397753924406
0.403636179974278
0.0744129201021497
0.00210410921266624
6.68465131946146e-06
1.5963471336333
2.34330366171588
2.80839309330193
2.30655182751879
1.90518640313437
1.63997196274801
1.80403784628069
1.93846005531247
1.4442898034125
0.912119529584988
0.676278350781479
0.318053212815131
0.0521930628987832
0.00126989150452129
3.64001834405402e-06
1.48731632816385
2.20389413578757
2.96065400138462
2.73303768528421
2.17819268373462
1.85681303308929
1.97957845087167
2.13689781457221
1.7151004840565
0.957393535126397
0.724078301870181
0.368939497283672
0.0666079363866409
0.00178887050729362
5.43338886313311e-06
1.44228111195173
2.1265757760866
2.99627440970213
3.03658092521131
2.30280327349791
2.02147866658318
2.09887211293904
2.24195517934463
1.85264891019885
1.08048340600831
0.790981988184342
0.409403155146966
0.0750384353979672
0.00210740364695737
6.66863901052921e-06
)
;

boundaryField
{
    inlet
    {
        type            calculated;
        value           nonuniform List<scalar> 
24
(
0.788370139924231
0.788370176740933
0.788370140521727
0.788370175899784
0.788370135225473
0.788370175591688
0.788370139924231
0.787871338114102
0.787084219419705
0.788370176740933
0.787871398163595
0.787084245086908
0.788370140521727
0.787871338450031
0.787084219575252
0.788370175899784
0.787871397415278
0.787084244256347
0.788370135225473
0.787871334793483
0.787084218156882
0.788370175591688
0.787871397206959
0.787084244116346
)
;
    }
    outlet
    {
        type            calculated;
        value           nonuniform List<scalar> 
156
(
0.00357336628576595
0.0189180229197948
0.0754736395331839
0.0959015138348729
0.127972184786246
0.128774092993269
0.169024298903106
0.554148695919882
0.764161173850715
0.595404477046289
0.320437432463085
0.0732014617018352
0.00453912316871384
4.9666037567616e-05
6.05311844356607e-08
0.00699442183857282
0.102646451735906
0.315004420634607
0.205419636833697
0.165294140918615
0.149358215247944
0.188707371081225
0.504709365968415
0.742899639060993
0.588151889354695
0.300714102310749
0.0571445199127734
0.002823430294735
2.76504561149376e-05
3.85699985040987e-08
0.00357337273207958
0.0189179831675531
0.0754735946018991
0.0959015259707351
0.127972139835067
0.128774015414149
0.169024227888635
0.554148628735263
0.764161136852235
0.595404447010534
0.320437425365645
0.0732014629662934
0.00453912322756275
4.96660331284843e-05
6.05311763590267e-08
0.00699444199008613
0.102646569927207
0.315005372147472
0.205420055308257
0.165294918240754
0.149359259873169
0.188707820170912
0.504709344423074
0.742900055532653
0.588152247079289
0.300714327915951
0.0571445841427458
0.00282343197240273
2.76503551329916e-05
3.85694399539141e-08
0.0035732876885065
0.018918383140211
0.0754739982226537
0.0959013268195514
0.127972729062525
0.128775029282047
0.169025116529283
0.554149639872881
0.76416149550392
0.595404713560088
0.320437321518725
0.0732013776465249
0.00453912161273591
4.96661868478407e-05
6.05317496654228e-08
0.00699444493254383
0.102646586353896
0.315005476782734
0.205420104318853
0.16529499786567
0.14935937463778
0.188707902466553
0.504709355527107
0.742900082204746
0.588152270063807
0.300714342656361
0.0571445873790341
0.00282343202811183
2.76503510666114e-05
3.85694196076673e-08
6.67106617455144e-08
4.04333277517418e-07
1.19529437728744e-06
2.53320854067323e-06
4.07282924149756e-06
5.49696297190569e-06
6.67987629809392e-06
4.24774392583703e-08
1.95730228034084e-07
6.81653618903878e-07
1.84863473585492e-06
3.58105800092565e-06
5.39909270890211e-06
6.66281367638975e-06
6.6710650229796e-08
4.0433325927654e-07
1.19529443220042e-06
2.53320874667521e-06
4.07282954632008e-06
5.49696321168371e-06
6.67987639201367e-06
4.24767227104911e-08
1.95729870935007e-07
6.81654379939855e-07
1.84863583374589e-06
3.58105857512846e-06
5.39909186607566e-06
6.66281124102838e-06
6.6711313855512e-08
4.04334293477402e-07
1.19529387854875e-06
2.53320487646114e-06
4.07282354227214e-06
5.49695840794269e-06
6.67987455677844e-06
4.24766952326285e-08
1.95729857998567e-07
6.81654396229375e-07
1.84863584072236e-06
3.58105855418345e-06
5.39909180035423e-06
6.66281108965637e-06
0.0393531703054437
0.0278825819376256
0.0252252350978534
0.314403802957538
0.0250667667895515
0.000899064748993954
0.0728942824923574
0.217439142772273
0.0393531771994611
0.0278825820269178
0.0252252041197788
0.31440384589656
0.02506677596052
0.000899057920740196
0.0728943172295658
0.217439034041844
0.0393530332011685
0.0278826958135163
0.0252254027835078
0.314403166998484
0.0250667753088869
0.000899058926848074
0.0728943215569942
0.217439027419557
)
;
    }
    sides
    {
        type            calculated;
        value           nonuniform List<scalar> 
84
(
0.799894887262167
0.801919984985913
0.80235393774573
0.799894935113153
0.801920050061234
0.802354601531644
0.799894888050778
0.801919982376878
0.802353937796989
0.799894939370783
0.801920068647642
0.802354636744562
0.799894883596024
0.801920009132142
0.802353947550989
0.79989493816754
0.801920068195083
0.802354635383319
0.801301768832482
0.795971718344893
0.792412194895632
0.801300185217393
0.795973055767874
0.7924064595476
0.801301722709089
0.795971711811907
0.792412087430754
0.801300305457353
0.795973234687189
0.792406456800004
0.801302108609315
0.795971767932142
0.792412857161421
0.801300316548463
0.795973235612739
0.792406457408457
0.791758483838665
0.791748667452627
0.791758356067803
0.791748808705906
0.791759050013537
0.791748845223777
0.799712805438071
0.799707391746481
0.799712741318012
0.799707588263009
0.799713125097454
0.799707629486843
0.816502853533322
0.816505647963477
0.816502880276703
0.816505665340039
0.816502711130398
0.816505672216132
0.83788004971198
0.837878509062777
0.837880061173365
0.837878489366909
0.83787998849791
0.837878486168351
0.864374492744797
0.864379535265744
0.864374501943443
0.864379541578384
0.864374449193429
0.864379542556162
0.902321266857332
0.902316863233988
0.902321273748508
0.902316838712484
0.902321227187644
0.902316836426625
0.948717516779072
0.948835233754106
0.948717523405066
0.948835191051182
0.948717479875571
0.948835181494964
1.0174453327911
1.01721154612087
1.01744533813883
1.01721150258649
1.01744530193519
1.01721149453965
)
;
    }
}


// ************************************************************************* //
