/*--------------------------------*- C++ -*----------------------------------*\
  =========                 |
  \\      /  F ield         | OpenFOAM: The Open Source CFD Toolbox
   \\    /   O peration     | Website:  https://openfoam.org
    \\  /    A nd           | Version:  11
     \\/     M anipulation  |
\*---------------------------------------------------------------------------*/
FoamFile
{
    format      ascii;
    class       volScalarField;
    location    "0.0000800073";
    object      p;
}
// * * * * * * * * * * * * * * * * * * * * * * * * * * * * * * * * * * * * * //

dimensions      [1 -1 -2 0 0 0 0];

internalField   nonuniform List<scalar> 
900
(
789115.419016121
786879.519242965
786082.309748907
789299.85869984
787002.970396419
786199.414799001
789421.931039696
787055.556777568
786271.756873619
789115.377380539
786879.558570694
786081.966903553
789299.804670238
787003.042381611
786198.926677719
789421.935422233
787055.578755673
786271.796398656
789115.419286652
786879.521863551
786082.311846334
789299.858018933
787002.973554259
786199.413882977
789421.930466645
787055.55796321
786271.754558355
789115.372512781
786879.543770642
786081.936155357
789299.800360214
787003.031792526
786198.901938938
789421.934989249
787055.572104319
786271.798505569
789115.414550515
786879.496113654
786082.284549891
789299.857049035
787002.949157686
786199.41738807
789421.931543859
787055.544973811
786271.760452008
789115.373254894
786879.543625401
786081.936262303
789299.801242983
787003.030995987
786198.90327833
789421.935550512
787055.571365534
786271.799921089
786575.251851108
790662.624420672
793337.803225711
786671.167596479
790760.266267994
793387.796306576
786742.378097879
790783.727602175
793411.443818349
786576.637262723
790662.759616629
793341.26971145
786672.695692881
790759.735515695
793392.244249839
786742.311152826
790783.687520804
793410.433166825
786575.295640204
790662.638854225
793337.884552461
786671.207462516
790760.270158753
793387.90309698
786742.390082287
790783.73647958
793411.46288112
786576.519979996
790662.668911097
793341.228896277
786672.618690533
790759.656590462
793392.316959997
786742.194452572
790783.623927511
793410.130148798
786574.930319104
790662.51773481
793337.288484633
786670.878229095
790760.225061802
793387.086658598
786742.292449845
790783.583680922
793411.31545053
786576.506736047
790662.674748901
793341.217763086
786672.609204918
790759.658790272
793392.326703919
786742.178130174
790783.622250102
793410.082677799
792310.188229573
792326.855613653
792331.662709373
792317.508383196
792332.199421222
792330.785473166
792310.307846651
792326.930993805
792331.671484396
792317.32696973
792332.094317692
792330.747111547
792309.624343946
792326.500703493
792331.648673068
792317.289033892
792332.069344964
792330.735089527
784103.385997453
784113.629563836
784117.406690114
784108.999975312
784117.957338005
784119.982760793
784103.448545548
784113.680944742
784117.425516145
784108.740693389
784117.864387992
784119.953394697
784103.052136812
784113.367088016
784117.326736565
784108.692577906
784117.844963863
784119.942881824
767790.283565016
767802.737452044
767801.863177397
767788.273306384
767798.940913538
767802.43136694
767790.266469755
767802.731025831
767801.856417597
767788.142895015
767798.878083935
767802.43422945
767790.363408375
767802.775416289
767801.900632925
767788.117730402
767798.864673706
767802.433749897
747734.911304194
747726.604455932
747731.125710571
747738.622029209
747739.360177088
747730.842325497
747734.910066388
747726.604025598
747731.127297922
747738.52465541
747739.277552398
747730.825541513
747734.917151318
747726.606766978
747731.122055794
747738.505919889
747739.261322493
747730.821861154
724092.814711049
724098.303565972
724091.237123359
724083.046945001
724088.387581685
724085.238600783
724092.817192546
724098.304155001
724091.237426629
724082.956107957
724088.361042786
724085.238677382
724092.803047385
724098.300835199
724091.235217234
724082.937739496
724088.355668387
724085.238705064
691398.619992839
691366.622746036
691338.567883324
691399.125671559
691360.434703236
691339.721296731
691398.624150196
691366.625410624
691338.569016287
691399.068954053
691360.399009001
691339.709110853
691398.600929582
691366.609894475
691338.563037534
691399.055113663
691360.390365033
691339.705947816
654679.423824433
654538.671879844
654477.515957084
654588.438115156
654500.104670677
654472.848320604
654679.428360631
654538.675084705
654477.516910682
654588.400349905
654500.087234963
654472.846567731
654679.401927958
654538.656891751
654477.51283878
654588.393699857
654500.084069402
654472.846168801
603769.191917483
604041.223494198
604366.986351775
603923.540089974
604139.848683964
604385.435800203
603769.196212562
604041.227040737
604366.988634328
603923.51339724
604139.823430086
604385.42146497
603769.171310208
604041.206549739
604366.976072299
603923.507762877
604139.818225579
604385.418583383
799822.885719688
800040.481783089
800102.379653084
799822.892675729
800040.478132864
800102.386345279
799822.885730357
800040.481830218
800102.379652259
799822.892909354
800040.478969837
800102.386184362
799822.88572927
800040.481103313
800102.379681768
799822.892920992
800040.479008477
800102.386180146
44527.0098836132
80442.14297671
80959.5810868479
84653.8776057903
89106.2250258583
86533.5089560516
89570.509160561
92385.2509806121
140656.146682377
138340.743268964
124548.695525534
107434.788341898
101780.741066801
101330.824358891
101325.00701764
44878.7288442493
83880.0683997196
91476.6668883098
94629.7242418412
95293.9942544085
93040.261573627
86558.2294854124
85523.3898261365
136346.105266389
139867.923267759
135575.407417276
115816.773481607
102965.190437835
101354.734148537
101325.04899472
37603.0817481836
53822.3415208128
70370.0552934696
86698.3769539591
88525.6920686724
92307.5742157189
85635.8262792566
82729.4084869276
136977.485998365
179056.479542284
159506.072875568
125955.174801411
104486.751681719
101393.376408448
101325.136957665
42929.1337115966
23145.6840733518
32130.7582584888
66098.5388836667
87404.7998011735
101281.789149016
90759.7471397736
84608.4599302271
139386.037244754
213140.22691388
178589.424482757
137332.325883714
106560.334032913
101451.462109703
101325.282845071
61575.9438777111
92427.5429229474
94346.064047275
95325.2713151997
88241.9397585392
86337.836390779
92215.8638150169
91875.3674129554
138132.520574132
139342.125708711
122172.247335476
105414.5317486
101555.704640097
101327.716592498
101325.003961352
68152.4388359892
101611.555214596
97554.8508344878
94595.7096913114
94769.6968165727
92904.618562421
83981.4810964518
80645.7774404886
131851.711187226
143943.05982714
138905.098951764
113964.161182051
102384.928800343
101340.054813999
101325.021797834
65832.4419279907
81396.7235502847
90172.5172583909
85566.4872995214
88815.1834078228
94407.0877674574
84395.5427748725
73847.3561623571
129353.511761788
182011.495862352
161882.050398151
123986.360968352
103711.568462811
101367.709175614
101325.074389098
76688.4314233524
44209.3143385234
54304.0450059502
73014.0782626347
88417.0147778845
102348.889990507
85410.8412944931
74174.9074199962
122245.705494895
212714.276200912
180549.722612901
135422.275677463
105729.654092325
101420.718489348
101325.19770317
44527.0074530888
80442.1355949188
80959.5842089626
84653.8823587416
89106.2172948048
86533.5077939723
89570.5083444861
92385.2410761548
140656.129174885
138340.733509801
124548.69285678
107434.788386763
101780.741078441
101330.824358402
101325.007017638
44878.7286117688
83880.0597335505
91476.6648114285
94629.7293543256
95293.9935095661
93040.2628495159
86558.2203051341
85523.38112045
136346.097399845
139867.913874364
135575.404703326
115816.773844635
102965.190548013
101354.734149832
101325.048994717
37603.0748937981
53822.3369076969
70370.0556997121
86698.3767958384
88525.6888772148
92307.5780394565
85635.8107725733
82729.3967325331
136977.478113729
179056.467208446
159506.067667174
125955.174344461
104486.75181488
101393.376413389
101325.136957672
42929.1217701632
23145.6825121784
32130.7604902517
66098.5429721971
87404.7950315264
101281.783195681
90759.7339273474
84608.4522851591
139386.024303381
213140.219365295
178589.419505505
137332.324211437
106560.334067324
101451.462117312
101325.282845096
61575.8912206118
92427.5018864491
94346.0524002498
95325.4469901744
88242.1014355592
86337.9121555736
92215.878669219
91875.3532501484
138132.491125763
139342.053714144
122172.210499212
105414.529011446
101555.70431533
101327.716573092
101325.003961276
68152.3789988145
101611.48900067
97554.7777433689
94595.7307568603
94769.7726730958
92904.6154412312
83981.511335119
80645.7642954302
131851.73816917
143943.005028261
138905.1128449
113964.190005849
102384.932372813
101340.054855657
101325.021797825
65832.431570834
81396.5871237558
90172.3611622062
85566.5307358167
88815.2388240007
94407.0741780533
84395.5966224343
73847.3319739248
129353.482804998
182011.512975312
161882.073400757
123986.393434621
103711.57357906
101367.709272498
101325.074389213
76688.4884191697
44209.1865810319
54303.8527983331
73013.9912712185
88417.0994801033
102348.94576324
85410.8624612775
74174.8881075727
122245.629158554
212714.316366857
180549.779761849
135422.316124473
105729.659379101
101420.718586359
101325.1977033
44527.0430489394
80442.1912110623
80959.5275833045
84653.8335026843
89106.3380851281
86533.5272365128
89570.5136524897
92385.3994045569
140656.382904659
138340.868026385
124548.707089507
107434.780298221
101780.740784712
101330.824376748
101325.007017711
44878.7282066157
83880.1423338992
91476.6706587918
94629.6557288254
95294.0038936079
93040.2485947231
86558.3288065171
85523.5063190003
136346.210419105
139868.045046912
135575.434087531
115816.753413276
102965.18728797
101354.734124587
101325.048994816
37603.1619167967
53822.4102769002
70370.0461480097
86698.3703681749
88525.7279476171
92307.5296513261
85635.9950098186
82729.5454191628
136977.584917229
179056.617537001
159506.136279357
125955.170517014
104486.747730752
101393.376301396
101325.136957552
42929.2792341138
23145.7148547467
32130.7416743578
66098.5009805317
87404.8538118468
101281.840646364
90759.8846753118
84608.5381778171
139386.195297711
213140.269584051
178589.474266906
137332.34234604
106560.331852027
101451.461945962
101325.282844606
61575.8848020018
92427.4992585228
94346.0519930166
95325.4625592958
88242.1149679343
86337.9206171081
92215.8830440796
91875.3565225707
138132.493727664
139342.054263672
122172.210793274
105414.529102504
101555.704305002
101327.716572334
101325.003961274
68152.3749197815
101611.484900707
97554.7718631722
94595.7329437792
94769.779666223
92904.6174968135
83981.5173707214
80645.7652728313
131851.739551354
143943.004929326
138905.114025139
113964.191177016
102384.932501942
101340.054857016
101325.021797825
65832.431690201
81396.5748917484
90172.3469964993
85566.5345680326
88815.2439610623
94407.075488002
84395.6058715735
73847.331955473
129353.480327614
182011.515418029
161882.075253616
123986.394845692
103711.57376546
101367.709275494
101325.074389215
76688.4955498464
44209.17383902
54303.8345378407
73013.9820322887
88417.1074067621
102348.953762617
85410.8698628094
74174.8891038939
122245.624087655
212714.318512199
180549.782452555
135422.317865994
105729.659591384
101420.71858926
101325.197703301
189254.370547214
43308.1112686586
21484.1391686213
42174.7424740234
83209.7062428525
111606.706153053
99014.2599617954
86701.6269184272
133983.056706437
230786.957579528
197986.636454392
147012.85827542
108646.118681459
101513.744446107
101325.446226055
261014.422377038
71524.4005289333
22973.0483616286
29390.2194706271
78838.7733610695
116846.813574945
106270.984771943
90083.7972082539
131441.622511267
243308.086818814
213611.889611774
153056.40950039
110067.287481307
101564.375028712
101325.585367058
315738.420404789
102796.354882616
27266.0430432571
26662.8917109398
80766.3973248485
121562.018062581
109863.234774597
91400.7027562671
128352.502604154
238212.133660498
220522.189051034
156519.315300419
111090.190626783
101606.052356648
101325.700184931
229073.168435575
72472.1805920697
33405.172972787
53152.0295340733
84292.3949086124
113370.798100776
95284.652145582
77885.4505560531
114818.590191756
226994.904537313
196650.307329124
145344.650613266
108023.457659727
101489.917578621
101325.373168018
294413.360026129
99358.3881092477
31981.2360208163
38123.3379273329
78473.9938278704
118761.346910744
104235.884214262
82749.9679433127
116175.610713575
227038.422711462
205408.977052653
151509.173273877
109940.666515873
101559.938399695
101325.556473972
324043.691261115
117310.57175921
31521.4905604512
29530.7930719433
79930.0861659055
121165.320396738
110724.864301865
88370.7097267405
123364.353245102
237267.99594123
222738.03059263
157145.892409565
111128.324479216
101605.144369419
101325.693712657
189254.356139468
43308.1019742463
21484.1410883801
42174.7504607934
83209.7010935756
111606.694808466
99014.247449382
86701.6182655253
133983.045098306
230786.952647276
197986.632678582
147012.856399136
108646.118579614
101513.744452633
101325.44622609
261014.413333416
71524.3914985666
22973.0520885238
29390.226619842
78838.7627754243
116846.808688925
106270.974621259
90083.787100586
131441.612640682
243308.081101108
213611.88645954
153056.408583711
110067.287393034
101564.375032544
101325.585367096
315738.416732498
102796.349178243
27266.0451130219
26662.8930584784
80766.3910459166
121562.018237313
109863.228825239
91400.6973421696
128352.49801663
238212.133241448
220522.188597726
156519.31498263
111090.190575521
101606.052356872
101325.700184941
229073.287968877
72472.2736603009
33405.0196477973
53151.8702106867
84292.4802114157
113370.887301209
95284.6872260541
77885.4743102814
114818.593632548
226994.936716283
196650.363410358
145344.678477758
108023.461544611
101489.917643765
101325.373168096
294413.404978666
99358.5049168804
31981.1568985628
38123.2053556585
78474.1682246465
118761.370511979
104235.917941285
82750.0131802683
116175.645262483
227038.443714406
205409.00403742
151509.195226086
109940.669525418
101559.93842757
101325.556473996
324043.707622561
117310.62846639
31521.4562799178
29530.7491461759
79930.1859593599
121165.311399675
110724.89125027
88370.7412166095
123364.389672166
237267.992491648
222738.03050087
157145.902261409
111128.325651961
101605.1443109
101325.693712328
189254.501779162
43308.1975815414
21484.1194629803
42174.6668929616
83209.7693353782
111606.80715479
99014.3625789543
86701.7168688595
133983.202086696
230786.972855605
197986.664879324
147012.883508941
108646.119343782
101513.744303099
101325.446225376
261014.499447341
71524.4846170019
22973.0039669588
29390.1473613618
78838.9055968139
116846.866170274
106271.060790182
90083.9028073407
131441.749305046
243308.127278784
213611.912351242
153056.422509688
110067.288587385
101564.37493796
101325.585366318
315738.454146804
102796.408497984
27266.0196510876
26662.8820292672
80766.4727997119
121562.020100248
109863.278655402
91400.7556042271
128352.558198871
238212.129759209
220522.190754457
156519.322199755
111090.191702445
101606.052347866
101325.700184734
229073.302067684
72472.2837632597
33405.0049107986
53151.8542229076
84292.4874241258
113370.897821489
95284.6957693108
77885.478097897
114818.595029245
226994.940372679
196650.366758517
145344.679664359
108023.461697159
101489.917645589
101325.373168095
294413.41062702
99358.5173225071
31981.1495887748
38123.192199914
78474.1831691004
118761.372865892
104235.924973963
82750.0187026442
116175.648869
227038.446100341
205409.005464629
151509.196012258
109940.669642505
101559.938428437
101325.556473994
324043.709325312
117310.634536854
31521.4528987745
29530.7448189299
79930.1948509282
121165.31037842
110724.895125657
88370.7449196904
123364.3929399
237267.993072724
222738.030834273
157145.902834902
111128.325724023
101605.144307607
101325.693712307
)
;

boundaryField
{
    inlet
    {
        type            timeVaryingMappedFixedValue;
        fieldTable      p;
        value           nonuniform List<scalar> 
24
(
800000.132032031
800000.132032031
800000.132032031
800000.132032031
800000.132032031
800000.132032031
800000.132032031
800000.132032031
800000.132032031
800000.132032031
800000.132032031
800000.132032031
800000.132032031
800000.132032031
800000.132032031
800000.132032031
800000.132032031
800000.132032031
800000.132032031
800000.132032031
800000.132032031
800000.132032031
800000.132032031
800000.132032031
)
;
    }
    outlet
    {
        type            freestreamPressure;
        freestreamValue uniform 101325;
        supersonic      false;
        value           nonuniform List<scalar> 
156
(
46222.5868174095
85021.4750598279
87167.9691639554
88953.5969054418
92522.0079049751
90781.1580561349
95764.6254013777
100959.664629746
103009.68581946
103447.717705914
102759.866155399
101815.450376716
101374.833813492
101325.811914183
101325.001333734
64309.247717704
97259.4758542033
97829.359074128
97328.3643332251
92297.8298282732
91177.5005736391
97197.8189300976
100829.216305377
102882.577952424
103588.644182454
102653.52115756
101649.715153972
101347.321535537
101325.334475585
101325.00074873
46222.5866599342
85021.463939936
87167.9696658512
88953.6007022936
92522.0017458486
90781.1562870742
95764.624683177
100959.664324026
103009.684695078
103447.716858615
102759.865794715
101815.450363106
101374.83381523
101325.811914119
101325.001333733
64309.2033851351
97259.4562365376
97829.3564507471
97328.4832894209
92297.9533299547
91177.5658459814
97197.824172922
100829.212316521
102882.578641708
103588.636241768
102653.51365478
101649.713844534
101347.321424085
101325.334471507
101325.000748711
46222.5939976469
85021.5589995119
87167.9439498784
88953.5596873661
92522.0969942199
90781.1826286328
95764.6303203767
100959.669674967
103009.702373383
103447.72891105
102759.869553375
101815.449923257
101374.833777707
101325.811916892
101325.001333749
64309.1982422573
97259.455172761
97829.3566012984
97328.4938601287
92297.9637784768
91177.5731919984
97197.8264138593
100829.212214472
102882.578925086
103588.636280081
102653.513570733
101649.71382507
101347.321420444
101325.33447135
101325.00074871
101325.000755492
101325.002286954
101325.003264962
101325.003558528
101325.003216164
101325.00213663
101325.000501339
101325.000429745
101325.001342411
101325.003247735
101325.005331806
101325.006055411
101325.003524017
101325.000608242
101325.000755491
101325.002286954
101325.003264963
101325.003558528
101325.003216165
101325.002136629
101325.000501339
101325.000429741
101325.001342421
101325.003247741
101325.005331801
101325.006055402
101325.003524008
101325.000608242
101325.000755498
101325.002286951
101325.003264951
101325.003558519
101325.00321616
101325.002136638
101325.000501343
101325.00042974
101325.001342422
101325.003247741
101325.005331801
101325.006055402
101325.003524008
101325.000608242
63260.0657330002
52740.0118820694
40244.0807923452
48847.7953540725
71391.8787045398
68361.3516058543
68820.2178687079
78550.6852192014
63260.0580249632
52740.014745193
40244.0712948467
48847.7848433469
71391.8310354571
68361.2906679003
68820.2156887573
78550.7401246276
63260.1570120036
52739.9956660518
40244.1747397462
48847.9225284515
71391.8247800336
68361.2868530493
68820.2165122931
78550.7469720717
)
;
    }
    sides
    {
        type            zeroGradient;
    }
}


// ************************************************************************* //
