/*--------------------------------*- C++ -*----------------------------------*\
  =========                 |
  \\      /  F ield         | OpenFOAM: The Open Source CFD Toolbox
   \\    /   O peration     | Website:  https://openfoam.org
    \\  /    A nd           | Version:  11
     \\/     M anipulation  |
\*---------------------------------------------------------------------------*/
FoamFile
{
    format      ascii;
    class       surfaceScalarField;
    location    "0.0000800073";
    object      phi;
}
// * * * * * * * * * * * * * * * * * * * * * * * * * * * * * * * * * * * * * //

dimensions      [1 0 -1 0 0 0 0];

internalField   nonuniform List<scalar> 
2478
(
0.000831907870353422
-0.000175493018058198
2.17949077839161e-11
-2.57190189284495e-12
-0.00105235192017106
0.000636902527266906
-0.000155207535502911
1.93345724630242e-12
-8.40793428803777e-12
-0.000134682951185606
1.92662298170287e-10
1.71773387695881e-10
0.000467706939012205
0.000499086119785518
-4.38017414440116e-05
1.98870344562778e-11
-4.19647481911603e-12
-0.000631206387539253
0.00038215778246864
-3.87853608053542e-05
3.57922065466823e-11
2.35457217417044e-11
-3.36426909326157e-05
5.38704223915741e-11
3.97623916756872e-11
0.000280659886837646
0.000166278668671453
1.6273575965519e-11
-7.80786492318025e-12
-0.000210224210361575
0.000127327526475048
9.65460692078576e-12
-1.73961008358842e-12
7.0995337511431e-11
6.21190232770203e-11
9.35330039376226e-05
0.000831907905845278
-0.000175493092980161
-1.89506054620349e-11
-0.001052351990506
0.000636902689405758
-0.000155207644228335
-2.1568208915905e-12
-0.000134683651170159
-1.88520471098002e-10
0.000467706953393145
0.000499086224686168
-4.38017783785057e-05
-1.7501137583413e-11
-0.000631206432716451
0.000382157763791551
-3.87853842876823e-05
-3.44944289061219e-11
-3.36429369405528e-05
-5.17302602392588e-11
0.000280659741749951
0.00016627868138465
-1.42702756620976e-11
-0.000210224219130395
0.000127327539789321
-8.2221368927736e-12
-6.8450517118606e-11
9.35330496126865e-05
0.000831907870580154
-0.000175493021270896
-2.88065052497441e-12
-0.0010523519213954
0.000636902527595294
-0.000155207536424185
-7.72001337639647e-12
-0.000134682960481416
1.71308840810763e-10
0.000467706936824476
0.000499086121352184
-4.38017435045503e-05
-4.38493620753821e-12
-0.000631206387798343
0.000382157783707868
-3.87853615521253e-05
2.37844405086805e-11
-3.36426933770516e-05
4.01079596509639e-11
0.00028065988496393
0.000166278668857242
-7.9205185704416e-12
-0.000210224210380037
0.000127327526759571
-1.34557084441669e-12
6.22238481172346e-11
9.35330044540433e-05
0.000831907908005571
-0.000175493054526181
-2.42270378563413e-11
-0.00105235198922706
0.000636902694880186
-0.000155207622560105
2.50972539191791e-12
-0.000134683632331454
-2.055644742155e-10
0.000467706960301267
0.000499086226107323
-4.38017583174916e-05
-2.12762931188146e-11
-0.000631206432569142
0.000382157760812585
-3.87853740705104e-05
-3.71046391853778e-11
-3.36429359402974e-05
-5.61858681325314e-11
0.000280659745849458
0.000166278680581497
-1.75441553645905e-11
-0.000210224218861313
0.000127327539365272
-8.93588935485523e-12
-7.65345277388071e-11
9.35330490033401e-05
0.000831907869108579
-0.000175492976365852
2.16545308160537e-11
-0.00105235191115569
0.000636902526761208
-0.000155207519924214
-3.00887027966656e-12
-0.000134682883215303
2.01862878273845e-10
0.000467706954630513
0.000499086112038295
-4.38017185982716e-05
1.90362597646959e-11
-0.000631206384576172
0.000382157778914713
-3.87853533743515e-05
3.55361244987543e-11
-3.3642674543462e-05
5.36745288514696e-11
0.000280659904625881
0.000166278666418764
1.56278825600917e-11
-0.000210224210280493
0.000127327524436187
7.09262835095481e-12
7.38731113498863e-11
9.35329994310129e-05
0.00083190790742395
-0.000175493051371701
-0.00105235198853587
0.000636902694190951
-0.000155207619352423
-0.00013468362442986
0.000467706960471401
0.000499086225435134
-4.38017566763726e-05
-0.000631206432353206
0.00038215776070091
-3.87853721617276e-05
-3.36429331129267e-05
0.000280659746940836
0.000166278680501258
-0.000210224218819047
0.000127327539171205
9.35330487193279e-05
0.000466940698669558
3.04309127529255e-07
-7.66873573215636e-10
-6.80543376372408e-10
0.000465946231911757
1.9431985209253e-07
7.70952078056348e-10
7.18675970080504e-10
3.85332253661531e-08
-9.40678175870117e-10
-7.94628018171029e-10
0.000465300939751904
0.000280199258215577
9.4326420195794e-08
-3.61529719410201e-10
-2.43525692992207e-10
0.000279604575067989
5.01715809244642e-08
5.29684620871693e-10
4.89887178945544e-10
8.43214694086231e-09
-1.00087348332183e-09
-9.79135055857467e-10
0.000279196882614299
9.34047766248964e-05
-4.14151708533119e-10
-2.51454097886621e-10
9.32082063974716e-05
3.2684858763737e-10
1.32557500186984e-10
-1.053221005689e-09
-2.86099819941758e-10
9.30714365883147e-05
0.000466940711955913
3.075392799465e-07
7.42662259922873e-10
0.000465945719933739
1.90370917414577e-07
-7.58531176834731e-10
4.79903283985865e-08
9.09975751922729e-10
0.000465298496846099
0.000280200006859031
9.54144726901421e-08
3.38458799669598e-10
0.0002796041622385
4.92971262407247e-08
-5.21755279606073e-10
1.21149841485852e-08
9.94768352652158e-10
0.000279198089956303
9.3404450917492e-05
3.82079181932438e-10
9.32081152852348e-05
-2.93879355312693e-10
9.46043885699695e-10
9.30717490942735e-05
0.00046694069951771
3.04390211133604e-07
-6.68253531395206e-10
0.00046594621529629
1.9425912548617e-07
7.17350394038342e-10
3.87249394678867e-08
-7.74595150336826e-10
0.000465300913461957
0.000280199264777157
9.43668927946991e-08
-2.35971998018003e-10
0.000279604566032286
5.01382698784312e-08
4.90247585203333e-10
8.55875346045558e-09
-9.64612493830827e-10
0.000279196899847736
9.34047748413059e-05
-2.40895084479067e-10
9.32082084031036e-05
1.39044970090714e-10
-2.65780706037305e-10
9.30714390972843e-05
0.000466940729544263
3.07440571406677e-07
8.62908390412715e-10
0.000465945761806103
1.90470779291158e-07
-8.30748188990205e-10
4.75211017788961e-08
1.05619330843148e-09
0.000465298453435207
0.000280200064484674
9.53138975913286e-08
4.18953444636036e-10
0.000279604212635145
4.93858904207045e-08
-5.66462318458277e-10
1.16200724796468e-08
1.0467833071702e-09
0.000279198155052473
9.34044126254551e-05
4.94979323533481e-10
9.32080635420511e-05
-3.62133973361763e-10
1.16666295840642e-09
9.30717789206843e-05
0.000466940699238588
3.03733036540648e-07
-8.50963961243015e-10
0.000465946336667015
1.9474134537172e-07
8.18856182784478e-10
3.72033859369304e-08
-1.04562533192456e-09
0.000465301082539999
0.000280199211122329
9.40429016146774e-08
-4.03428843825417e-10
0.00027960463322759
5.03719023992586e-08
5.57426124410485e-10
7.53154011498471e-09
-1.05568307155919e-09
0.000279196765371681
9.34047926785754e-05
-4.73678012883217e-10
9.32081905009988e-05
3.27759140249413e-10
-1.07870233280677e-09
9.30714260501829e-05
0.00046694072824269
3.07421637632858e-07
0.000465945765818459
1.90520543945361e-07
4.74869465525059e-08
0.000465298447229896
0.00028020007068541
9.52977923973273e-08
0.000279604222564536
4.94234484053674e-08
1.15619471903429e-08
0.000279198167565223
9.34044072136355e-05
9.3208057271777e-05
9.30717833938704e-05
4.01853462964499e-05
-1.50484272200442e-09
-1.18127899985648e-09
0.000515240070399446
1.00451354605577e-05
-2.06228943666099e-09
-1.74057543492244e-09
0.000309156245491604
-1.26282300745963e-09
-6.89570924016294e-10
0.00010305708311532
4.01970152131702e-05
1.4324159592293e-09
0.000515238315096995
1.00493479994232e-05
1.97354524898979e-09
0.00030915715074691
1.16607984325303e-09
0.000103057178493993
4.01856036753421e-05
-1.14403627494769e-09
0.00051524006110846
1.0045255192817e-05
-1.6892709005711e-09
0.000309156256103282
-6.67188671064217e-10
0.000103057086265727
4.01964820045221e-05
1.64772695737236e-09
0.000515238299403418
1.00489283322169e-05
2.30253252927895e-09
0.000309157160587352
1.36425353604091e-09
0.000103057188991445
4.01839003756204e-05
-1.6131635353152e-09
0.000515240106205605
1.00444337529148e-05
-2.26578213705303e-09
0.000309156187402038
-1.2900007900535e-09
0.000103057070743457
4.01964291215884e-05
0.000515238300357848
1.00488732579952e-05
0.000309157162924496
0.000103057190078279
3.36452915393192e-05
-1.73308279516728e-09
-1.2025023164719e-09
0.000558173709158473
8.40940447507476e-06
-2.02292425898528e-09
-1.4452867722059e-09
0.000334911342405196
-1.15374773715935e-09
-5.00251848517368e-10
0.000111640064710932
3.36568516540334e-05
1.6352323287225e-09
0.000558175269005953
8.41349505974355e-06
1.9202673571801e-09
0.000334912321524487
1.04777235807952e-09
0.000111640382868294
3.36455408498611e-05
-1.16054683246304e-09
0.000558173713032602
8.40952627485331e-06
-1.41341325487132e-09
0.000334911351925182
-4.82223174586016e-10
0.000111640067526455
3.36558716365846e-05
1.74986895237544e-09
0.000558175220086232
8.41297103675314e-06
2.06828286263136e-09
0.000334912316449892
1.20622080233184e-09
0.000111640379397769
3.3644073214003e-05
-1.69432712402318e-09
0.000558173681016863
8.40874114613015e-06
-1.99790526489311e-09
0.000334911299508142
-1.11847316922476e-09
0.000111640054812645
3.3655762976378e-05
0.000558175213768237
8.41290043128624e-06
0.000334912315622146
0.000111640378025951
2.32591885586877e-05
3.59304941474538e-09
4.11398256422706e-09
0.000588731723240263
5.81450915727156e-06
2.62901562900295e-09
3.19587260756878e-09
0.000353247007884038
6.3622509929688e-10
1.26394632374337e-09
0.000117751607243152
2.32408553649363e-05
-3.68242631862675e-09
0.000588733028285834
5.81038448021473e-06
-2.72450628149758e-09
0.000353245462512377
-7.27401323094394e-10
0.000117751045194475
2.32593988341091e-05
4.1356977043298e-09
0.000588731731055919
5.81460514116936e-06
3.21595334504309e-09
0.000353247016473701
1.27046365815857e-09
0.000117751608738663
2.32399018346601e-05
-3.48079484533597e-09
0.000588732941456227
5.80986856456994e-06
-2.52916992720103e-09
0.000353245419758342
-6.0350728223451e-10
0.000117751036744695
2.32578927910445e-05
3.54812052286678e-09
0.000588731678505726
5.81390305006617e-06
2.60422566882501e-09
0.00035324696841149
6.87627619720601e-10
0.000117751601232766
2.32397602970807e-05
0.000588732926201556
5.80979082607564e-06
0.000353245411546679
0.000117751034793784
2.88699544563663e-06
-1.17165617675064e-08
-1.11968207641244e-08
0.000594035211834454
7.20451301068625e-07
-6.04940012655358e-09
-5.52027503217386e-09
0.000356416255279613
-3.47204170487092e-09
-2.90519484950078e-09
0.00011880873113297
2.93111931663553e-06
1.16278306764011e-08
0.000594038284367051
7.33637965373557e-07
5.96000506906209e-09
0.000356424055103341
3.38353620636797e-09
0.000118808156315487
2.88718181921065e-06
-1.11876337478508e-08
0.000594035219058266
7.20543690691325e-07
-5.51047688436643e-09
0.000356416259669359
-2.90107774023225e-09
0.000118808732290182
2.93029543120646e-06
1.18202477283652e-08
0.000594038207943985
7.33188928879263e-07
6.13394294976229e-09
0.000356424010065843
3.50634944121025e-09
0.000118808146973566
2.88584888701081e-06
-1.17408587845956e-08
0.000594035177071986
7.19901320179182e-07
-6.05447333842371e-09
0.000356416233466898
-3.42214746243321e-09
0.000118808725912073
2.93014419215404e-06
0.000594038192817015
7.33108879193633e-07
0.000356424001221025
0.000118808145163758
7.70888868751312e-05
1.19334710275368e-08
1.26015779881882e-08
0.000692236149047209
1.92702895909015e-05
8.12133877232642e-09
8.83440546216828e-09
0.000415343723752222
3.94539686045334e-09
4.7061168536363e-09
0.000138444759871642
7.70291527196121e-05
-1.20383119154069e-08
0.000692227752123012
1.92540172617339e-05
-8.22812202904257e-09
0.00041533570618818
-4.05460963480257e-09
0.000138443917156023
7.70891057246558e-05
1.26080525796133e-08
0.000692236158132497
1.92703995936039e-05
8.83796272971304e-09
0.000415343727820459
4.7072392907405e-09
0.000138444760753468
7.70279904099262e-05
-1.18247231640665e-08
0.000692227673645105
1.92533892959571e-05
-8.05982821591245e-09
0.00041533566911805
-3.92687987433183e-09
0.000138443911084465
7.7087473353572e-05
1.19231383135772e-08
0.000692236103707505
1.92696012960101e-05
8.16308017552057e-09
0.00041534370284109
4.03497558499125e-09
0.000138444754987141
7.70277876290126e-05
0.000692227657739689
1.92532834325196e-05
0.000415335661692403
0.000138443909924958
0.00111301798129361
-7.71120536104423e-09
-6.89051504374448e-09
0.00208611606641888
0.00027826151254242
-9.67836865983568e-09
-8.81252825064589e-09
0.00125169948814
-5.53706906242452e-09
-4.63594788691632e-09
0.00041724534188423
0.00111306662367281
7.5955674407437e-09
0.00208612674483208
0.00027828170210646
9.56150150483066e-09
0.00125169266930049
5.41787484076598e-09
0.000417244601804487
0.00111301822664841
-6.89132056475895e-09
0.00208611609458273
0.000278261633499823
-8.81543748556483e-09
0.00125169950406198
-4.63768567749183e-09
0.000417245346204342
0.00111306508219308
7.84782085686995e-09
0.00208612652365634
0.000278280912691051
9.75096142632331e-09
0.00125169255160605
5.55827094452562e-09
0.000417244570326108
0.00111301618837361
-7.73135580041254e-09
0.00208611591096517
0.00027826066996895
-9.63116331310779e-09
0.00125169940258655
-5.43731777544144e-09
0.000417245318146751
0.00111306481675522
0.00208612647959726
0.000278280784379799
0.00125169252849217
0.000417244564072511
0.000735772433330897
2.10469789894974e-08
2.19638922674403e-08
0.00300815979257052
0.000184010963785557
2.33009899977196e-08
2.4269615364809e-08
0.00180505722089847
4.67691674515928e-09
5.66435876621276e-09
0.000601773377224955
0.000735788114698409
-2.11676255031101e-08
0.00300829386360041
0.000184001336628837
-2.3423847941048e-08
0.00180514702330694
-4.80008319452951e-09
0.000601781178464603
0.000735772678793552
2.19609136853241e-08
0.00300815983242096
0.000184011086427284
2.42650728038201e-08
0.00180505724226532
5.66226582364004e-09
0.000601773383131312
0.000735786495009407
-2.08960127233166e-08
0.00300829356676564
0.000184000491396718
-2.32204499308079e-08
0.00180514688017177
-4.65023269901905e-09
0.000601781140461455
0.00073577048187384
2.1019719185166e-08
0.00300815957896524
0.000184010039762797
2.3347921840138e-08
0.00180505710741934
4.77557674568446e-09
0.000601773345994541
0.000735786231140338
0.0030082935091501
0.000184000362475927
0.00180514685230551
0.000601781133037136
-0.00171785870342136
-6.81180062717872e-08
-6.71710813755994e-08
0.000859628832393476
-0.000429532245905992
-5.7150613868304e-08
-5.62688513036473e-08
0.000515772366597563
-1.47939857769773e-08
-1.39771891912604e-08
0.000171927941999599
-0.00171769384440031
6.80240688866272e-08
0.000859622369399141
-0.000429481852066629
5.70564769813791e-08
0.000515769055329335
1.46986050501147e-08
0.000171930765897052
-0.0017178585369106
-6.71733652783755e-08
0.000859628842415418
-0.000429532156259717
-5.62710023776711e-08
0.000515772372065148
-1.39782858951513e-08
0.000171927943468029
-0.00171769548565904
6.77855363212911e-08
0.000859622297481099
-0.000429482614139008
5.69481631667017e-08
0.000515769018749239
1.4726354388261e-08
0.000171930756703403
-0.00171785956575728
-6.7689235746138e-08
0.000859628778831912
-0.000429532807387107
-5.68517987831608e-08
0.000515772337651324
-1.4629799760578e-08
0.000171927934679737
-0.00171769565518519
0.000859622283505121
-0.000429482706521087
0.000515769011675054
0.000171930754930676
1.97797297936896e-06
4.04455677391509e-11
8.36170092584701e-12
5.17957554692556e-07
3.16180508966486e-11
3.03395926003897e-13
1.57256699524246e-11
-1.53164331261404e-11
1.97785469380695e-06
-3.76476965379367e-11
5.17928983263425e-07
-2.89503406056962e-11
-1.33101513751649e-11
1.9779678874848e-06
8.26329515880506e-12
5.17955129309257e-07
2.2424423429257e-13
-1.53054114521156e-11
1.97791228441447e-06
-4.05188102037615e-11
5.17958106925024e-07
-3.19596801822732e-11
-1.51382529016593e-11
1.97802925581394e-06
3.77657958074498e-11
5.17985226325553e-07
2.93124001091681e-11
1.26779904933635e-11
1.97791716580588e-06
5.17960545846864e-07
-3.63396124485724e-05
0.000164785574540455
-3.67694756538944e-06
-3.67689273085889e-06
0.000117290081563795
-4.00104202049464e-05
5.33106676292756e-06
5.33116965318974e-06
0.000245976237524443
3.22179122962823e-05
2.93114903264857e-06
2.93129271990397e-06
0.000405698096154647
0.000171531324752626
-3.67847144923274e-05
-3.67847532394792e-05
0.00047329868001234
0.00020777349685641
-3.6119009430635e-05
-3.6119262566201e-05
0.000488770514166463
0.000153434864266599
-2.50394047132042e-05
-2.50401301596106e-05
0.000335637118427765
4.01279956340058e-05
4.43023268523949e-06
4.43005063802967e-06
0.000223796739207341
-0.000895181651577353
-1.73566221122005e-06
-1.73588279926912e-06
0.000632027444388817
-0.00222072086009865
-3.36961051347135e-06
-3.36955653615372e-06
0.000592366703282194
-0.00219325526853811
-1.09957998457627e-06
-1.09948881141567e-06
0.000210931482418522
-0.00126931542125942
-4.85870261253255e-06
-4.85861404804055e-06
2.03149060873578e-05
-0.000262276822318501
-9.50641817256401e-06
-9.50636659114676e-06
3.99898181033123e-07
-1.79531472575046e-05
-9.6669352285685e-07
-9.6669387441862e-07
7.81852075595023e-10
-2.31784920783594e-07
-1.17014422981905e-08
-1.17014657811422e-08
-3.16452854589103e-10
-1.39029610306957e-11
-1.39030362743264e-11
0.000175931219377759
7.32270980765472e-05
-1.01619273744046e-05
-1.01619253252412e-05
0.000426640039109467
-0.000321557672221526
2.91229599423408e-05
2.912309081776e-05
0.000501237405907635
-4.99805439181869e-05
1.60253958283636e-05
1.60255292839473e-05
0.000550164629391769
0.000159306231768712
-1.44286588168854e-05
-1.4428705136699e-05
0.000591849753182689
0.000164997739173366
-1.28102458536395e-05
-1.28104677168742e-05
0.000601475950536032
0.000110600596078282
-9.56848644215864e-06
-9.56889578098853e-06
0.000497962065025292
-5.48104180303987e-07
-1.02772460021899e-05
-1.02773666516583e-05
0.000269040528239021
-0.000337518251898226
-6.87806553213407e-06
-6.87825120795579e-06
0.000487874735398593
-0.00123940821038909
3.31678075753377e-07
3.31286219807682e-07
0.000601012128903207
-0.00180440237929363
9.09114960726394e-06
9.09087818027764e-06
0.000305442913065073
-0.00112150165631611
2.84610212124286e-05
2.8461010197855e-05
6.05766889994275e-05
-0.000277660833149741
-8.80517155335244e-07
-8.80227228958067e-07
1.81378965457321e-06
-2.49280388520167e-05
-1.53726233812515e-06
-1.53725906365786e-06
4.68496026034045e-09
-4.48146727260882e-07
-2.569844083372e-08
-2.56984711638963e-08
-8.64393206317926e-10
-4.52445329465756e-11
-4.52445190687878e-11
0.000328894095764493
-0.000327346406179865
4.13406112409753e-05
4.13406035867969e-05
0.000509037650414712
-0.000470077996542486
-1.15521881880773e-05
-1.15519378273464e-05
0.00056186919896119
-7.13978514232079e-05
-1.32332091152299e-05
-1.32328523793653e-05
0.000564330031458526
0.000131252674557347
1.07549525021427e-05
1.07549639891613e-05
0.000558560337449319
0.000166090903353058
-2.53049043690467e-07
-2.52956054775587e-07
0.000599044398200167
9.05625396238642e-05
-8.55283389178938e-06
-8.55391935290041e-06
0.000593768861837272
-5.48311974907256e-05
-4.88473117746724e-06
-4.88483708724197e-06
0.000483420164151313
-0.000125197040064684
-2.12406682330693e-05
-2.12408182068516e-05
0.000488173354952721
-0.000483314068409317
-1.09240206271534e-05
-1.09243603669175e-05
0.000689231404338144
-0.00112891064616875
3.54588517549354e-06
3.54572734356567e-06
0.000426674611932328
-0.000865525369333494
2.73632165446561e-05
2.7363180132633e-05
9.56799425813873e-05
-0.000266383480269222
1.36972672947269e-06
1.36971793878555e-06
3.33841786458731e-06
-2.74000551825631e-05
-1.82707399974528e-06
-1.82707185298074e-06
1.04183017558043e-08
-5.61756227325386e-07
-3.80121713209193e-08
-3.80122540833295e-08
-1.24533704160511e-09
-8.13078266282026e-11
-8.13079522872344e-11
0.00037214361878023
5.58609002662347e-05
5.58609184243527e-05
-0.000713113340348768
0.000296920508376128
-1.80463531902349e-05
-1.80461596506261e-05
-0.000353533359766816
0.000377548911103819
-1.57373841254585e-05
-1.57372592294747e-05
-0.000117782357125534
0.000493341975625916
-2.42103133021263e-05
-2.42091558520308e-05
5.81730959244102e-05
0.000504606241595588
1.14655373608775e-05
1.14653441373799e-05
0.000131149577138484
0.000537576696291919
2.62856463013455e-06
2.62766612576314e-06
4.50350349983715e-05
0.00054379770938506
-1.30554130506039e-05
-1.30557803940441e-05
-4.1614900197346e-05
0.000510663713664693
-8.1187951949288e-06
-8.11885571951905e-06
-4.32268538146538e-05
0.000485461254389059
-2.38793453353797e-05
-2.38793792539568e-05
-8.77008036416011e-05
0.000630287357697494
6.98833485977086e-06
6.98787661992787e-06
-0.000481081936246612
0.000509009099550004
1.85977196946428e-05
1.85975123853667e-05
-0.000471677149484818
0.000128247400684129
6.41775083121566e-06
6.41789222414492e-06
-0.000186984684834794
4.71437332499609e-06
-1.60981060605891e-06
-1.60980847038885e-06
-2.11426253745224e-05
1.57745197808495e-08
-4.32259672267276e-08
-4.32260392436642e-08
-4.72491305153521e-07
-1.13215833951776e-10
-1.13215984981138e-10
-1.14227995443549e-09
9.39084437357988e-05
6.96326461947739e-05
3.67694141464671e-06
0.000319126715650953
-0.000136564346936953
-5.33107524177597e-06
0.000457346280946747
-0.000178691580060462
-2.93115410667405e-06
0.000535809360442145
0.000163490352780683
3.67847176244855e-05
0.000530232676667161
0.000188087960692122
3.61190266089448e-05
0.000494605267811058
0.00011031292027803
2.50394551442182e-05
0.000389623767553842
9.27678992170349e-05
-4.43021004754596e-06
0.000242811142128667
-0.000841077014710719
1.73568408747546e-06
0.000621212552189352
-0.00219175960881942
3.3696036805324e-06
0.00061163369273193
-0.00224058007755904
1.09957085926281e-06
0.000178666056833576
-0.00120438648887551
4.85870167437149e-06
1.19432070614941e-05
-0.000223592503065532
9.5064181916019e-06
1.75945392520498e-07
-1.17737465548809e-05
9.66693538529426e-07
3.56328541868157e-10
-1.13734203152855e-07
1.17014412530196e-08
-1.35852775209888e-10
1.39029584828206e-11
0.000262806834229673
-0.000180102776731931
1.01619183017457e-05
0.000520200107492544
-0.000302988446003463
-2.91229650658556e-05
0.000582884037041015
-6.99176132927897e-05
-1.60254013812309e-05
0.000609208237764116
0.00013893339952384
1.44286582814026e-05
0.000616421827519977
0.000153529447926838
1.2810273613396e-05
0.000619458261903833
8.45452401861056e-05
9.56852628312588e-06
0.000482539262530351
4.83473254614866e-05
1.02772527427845e-05
0.000234816073270518
-0.000297991347823462
6.87808673581505e-06
0.000473075654936551
-0.00122953561026031
-3.31624531170222e-07
0.000625739299906003
-0.0018214657895491
-9.09114159420546e-06
0.00033109161451253
-0.00116323807114355
-2.84610286546668e-05
4.56261386785069e-05
-0.000274538911691904
8.80518758077163e-07
9.16314157669825e-07
-2.09499807916707e-05
1.53726246138669e-06
1.91355186698276e-09
-2.94830564509388e-07
2.56984419677955e-08
-4.66374803359537e-10
4.52445319165835e-11
0.000452043132125615
-0.000519784571648149
-4.1340611267451e-05
0.000594625377812388
-0.000462588327733084
1.15521804105325e-05
0.000569697609971102
-2.93956002563563e-05
1.32331981734135e-05
0.000552052771173578
0.000186576748079423
-1.0754957904317e-05
0.000556986247831237
0.00015849892426375
2.53033665932291e-07
0.000592083601995364
8.34609336685824e-05
8.5529183090577e-06
0.000568812754618473
-1.72809854538258e-05
4.8847175306004e-06
0.000427437892299445
-0.000140549920954912
2.12406802456301e-05
0.000434139354514166
-0.00049880893073469
1.09240512087889e-05
0.00069188941982149
-0.00116667966047228
-3.54586630520182e-06
0.000445483449844319
-0.000922509875385199
-2.73632278251475e-05
8.25608093770967e-05
-0.000286273230669641
-1.36972708689078e-06
2.14511000593801e-06
-2.67181498676467e-05
1.82707414984309e-06
5.46713664227247e-09
-4.77656077726247e-07
3.80121722861303e-08
-9.51742540030234e-10
8.13078288508171e-11
0.000488814441333066
-5.58609213340433e-05
-0.000797369669867134
0.000417984029439528
1.80463529951348e-05
-0.000425540549275023
0.000441050840508973
1.5737383442362e-05
-7.59571548133407e-05
0.000464341207304822
2.42102239332369e-05
0.000110872772032415
0.000486875373947781
-1.1465542642425e-05
0.000159161050522487
0.000526212794122257
-2.62852690390949e-06
5.60527755176278e-05
0.0005043121534407
1.30554161471624e-05
-2.84173987210222e-05
0.000460942944772138
8.11880298475247e-06
-8.81587626698863e-05
0.000442284049978271
2.38793753053526e-05
-0.000162086257775425
0.000626447974742394
-6.98828930712663e-06
-0.000549360333055865
0.000520723440396571
-1.85977116703614e-05
-0.000511061159633403
0.000118136648777724
-6.41776306097247e-06
-0.000214799009842735
3.65930571495171e-06
1.60981063321107e-06
-2.40895050780479e-05
1.09447602283778e-08
4.32259664915301e-08
-5.19393270024117e-07
1.1321582630815e-10
-1.20208730003488e-09
-3.6339594634765e-05
0.000164785560249162
-3.6768902116952e-06
0.000117289953656137
-4.00103403024492e-05
5.33117102704004e-06
0.000245976220283296
3.22178525230419e-05
2.93128269103691e-06
0.000405698119434491
0.000171531315341273
-3.67847551861702e-05
0.000473298573984042
0.000207773503167512
-3.61192577678369e-05
0.000488770375473077
0.000153434816806286
-2.50401176573475e-05
0.000335637017833279
4.01280117505772e-05
4.43003430860092e-06
0.000223796615977494
-0.000895181730996902
-1.73588932031725e-06
0.000632027267610205
-0.00222072089167935
-3.36955100677935e-06
0.000592366599131408
-0.00219325513847276
-1.09948433190885e-06
0.000210931473401875
-0.00126931538382564
-4.85861712693761e-06
2.03149075115606e-05
-0.00026227683451848
-9.50636880987706e-06
3.99898186849651e-07
-1.79531485230196e-05
-9.66693869688408e-07
7.81851932697177e-10
-2.31784926450068e-07
-1.17014638233441e-08
-3.164528331219e-10
-1.39030332385603e-11
0.000175931130614501
7.32271654943695e-05
-1.01619101287282e-05
0.00042663995293801
-0.000321557581509441
2.9123087353032e-05
0.000501237334200644
-4.99805716278886e-05
1.60255230330684e-05
0.000550164573647188
0.000159306229838453
-1.44287040633383e-05
0.000591849623139109
0.000164997807118931
-1.28104779809937e-05
0.000601475835093142
0.00011060057681157
-9.56890187354029e-06
0.000497961933839677
-5.48049225161879e-07
-1.02773666125728e-05
0.000269040429670251
-0.000337518267462473
-6.87825855406337e-06
0.000487874682002375
-0.00123940829610591
3.3126585846844e-07
0.000601012038521589
-0.00180440231831709
9.09089094518927e-06
0.000305442892912324
-0.0011215015925794
2.84610183542901e-05
6.05766939419435e-05
-0.00027766083467646
-8.80239622219668e-07
1.81378983340596e-06
-2.49280405706152e-05
-1.53725927976543e-06
4.68496034566716e-09
-4.48146774957537e-07
-2.56984712057465e-08
-8.64393267466929e-10
-4.52445219961337e-11
0.000328894029583856
-0.000327346320070872
4.13406092716651e-05
0.000509037615108705
-0.000470077939471782
-1.15519533490546e-05
0.000561869153965002
-7.1397829042177e-05
-1.32328725368574e-05
0.000564329945738445
0.000131252722779942
1.07549715635398e-05
0.000558560225798398
0.000166090956619459
-2.52952891756125e-07
0.000599044300302521
9.05626087719098e-05
-8.55390699847907e-06
0.000593768697949822
-5.48311175686941e-05
-4.88481600839367e-06
0.000483420023278109
-0.000125197028004894
-2.12408126353277e-05
0.000488173283595935
-0.000483314171387886
-1.09243607444897e-05
0.000689231337096601
-0.00112891072340919
3.5457271318817e-06
0.000426674580181204
-0.00086552536649201
2.7363192555085e-05
9.56799444452625e-05
-0.000266383471031163
1.36971889704701e-06
3.3384181901871e-06
-2.74000556881062e-05
-1.82707204625523e-06
1.04183028138772e-08
-5.61756277805839e-07
-3.8012252154317e-08
-1.24533719751338e-09
-8.13079548893196e-11
0.000372143564150511
5.5860931581226e-05
-0.000713113258069516
0.000296920484695246
-1.80461786856874e-05
-0.000353533317973611
0.000377548911983887
-1.57372705568158e-05
-0.00011778234294608
0.000493341911906523
-2.42091702870534e-05
5.81731417921467e-05
0.000504606140537893
1.14653647226994e-05
0.00013114964537891
0.000537576618823969
2.62771203499417e-06
4.50350827018196e-05
0.000543797626702276
-1.30557520416904e-05
-4.16148684677506e-05
0.000510663623848648
-8.11884577515832e-06
-4.32268697876825e-05
0.000485461157011633
-2.38793945288489e-05
-8.77009082988356e-05
0.000630287324267466
6.98786601382117e-06
-0.000481082069374949
0.000509009063262539
1.8597516919688e-05
-0.000471677207248991
0.000128247395120815
6.4178980713832e-06
-0.000186984686071536
4.71437358119984e-06
-1.60980854651269e-06
-2.11426249847696e-05
1.57745215770473e-08
-4.32260356007449e-08
-4.72491321388364e-07
-1.13215977174883e-10
-1.14228006816829e-09
9.39085220567775e-05
6.96330646246406e-05
3.67700560254642e-06
0.000319126816540608
-0.000136564822092991
-5.33099810289759e-06
0.000457345565643794
-0.000178692036240722
-2.93125730875234e-06
0.000535809602250968
0.000163490929285426
3.67846902514259e-05
0.000530234677896276
0.000188088081145172
3.61190824411345e-05
0.000494607362836079
0.000110313980888618
2.50395418396808e-05
0.000389624963836356
9.27691694139936e-05
-4.43029275527508e-06
0.000242811819591302
-0.000841076409599633
1.73557169477203e-06
0.000621212974115159
-0.00219176180535776
3.36963932778432e-06
0.000611632941701346
-0.00224058126140497
1.0996003831738e-06
0.000178665801549942
-0.00120438784970557
4.85859359111924e-06
1.19432040798265e-05
-0.000223593130905399
9.50634687259272e-06
1.75944899456358e-07
-1.17737983818126e-05
9.66693487471526e-07
3.56324207986813e-10
-1.13734688467117e-07
1.17014993599135e-08
-1.35852634480446e-10
1.39031872494789e-11
0.000262806955858811
-0.000180103064896136
1.01621315154506e-05
0.000520200510763239
-0.000302989589499636
-2.91229523763771e-05
0.000582884102231766
-6.99183444356948e-05
-1.60254471598326e-05
0.000609208489537447
0.000138933265229232
1.44286659843952e-05
0.000616422665088915
0.000153529521180847
1.28101616595239e-05
0.000619459558449538
8.4546694064369e-05
9.56850683896048e-06
0.000482540543166634
4.83487727674253e-05
1.02772804378006e-05
0.000234816881689146
-0.000297990658191641
6.87789929072649e-06
0.000473076112700894
-0.00122953622484356
-3.32031470280181e-07
0.000625739167343387
-0.00182146622047413
-9.0909570881538e-06