/*--------------------------------*- C++ -*----------------------------------*\
  =========                 |
  \\      /  F ield         | OpenFOAM: The Open Source CFD Toolbox
   \\    /   O peration     | Website:  https://openfoam.org
    \\  /    A nd           | Version:  11
     \\/     M anipulation  |
\*---------------------------------------------------------------------------*/
FoamFile
{
    format      ascii;
    class       volScalarField;
    location    "0.0000800073";
    object      rho;
}
// * * * * * * * * * * * * * * * * * * * * * * * * * * * * * * * * * * * * * //

dimensions      [1 -3 0 0 0 0 0];

internalField   nonuniform List<scalar> 
900
(
1.40369305678284
1.40061438762093
1.39951808985389
1.40394782964683
1.40078456688956
1.39967938715545
1.40411443595749
1.40085674836169
1.3997791645859
1.40369299963492
1.40061444600619
1.39951760646456
1.40394775569656
1.40078466802778
1.39967871014594
1.40411444210803
1.40085677857789
1.39977921896164
1.40369305727995
1.40061439115304
1.39951809252312
1.4039478287835
1.40078457119803
1.39967938575441
1.40411443518591
1.40085674999696
1.39977916135991
1.40369299234536
1.40061442609509
1.39951756462612
1.40394774934814
1.4007846537987
1.39967867655964
1.40411444135847
1.40085676951962
1.39977922212033
1.40369304911174
1.40061435689397
1.39951805685897
1.40394782651547
1.40078453828036
1.39967939177005
1.40411443650337
1.40085673219467
1.39977916978813
1.40369299333855
1.40061442591819
1.39951756483684
1.40394775053578
1.40078465271412
1.39967867846545
1.40411444211533
1.40085676849903
1.39977922410726
1.40019590652126
1.40580948357087
1.40946026768007
1.40032798358411
1.40594364146284
1.40952893424728
1.40042617419176
1.40597593503063
1.40956156335037
1.40019780516008
1.40580968457604
1.40946501900136
1.4003300814325
1.40594291799239
1.40953504326705
1.40042608234659
1.40597588005796
1.40956017965364
1.40019596667148
1.40580950372434
1.40946037878722
1.40032803835696
1.40594364700692
1.40952908061485
1.40042619065912
1.40597594728615
1.40956158960747
1.40019764388681
1.40580955864305
1.40946496610902
1.40032997556572
1.40594280835308
1.40953514547227
1.40042592192618
1.40597579236379
1.40955976402541
1.40019546461983
1.40580933402433
1.40945956772473
1.40032758583396
1.40594358302645
1.40952796363976
1.40042605643646
1.40597573694938
1.40956138681552
1.4001976256968
1.40580956656826
1.40946495085213
1.40032996254366
1.40594281126412
1.40953515891349
1.40042589949795
1.40597579001744
1.40955969885583
1.40804366976818
1.40806659905607
1.40807332673212
1.40805372633236
1.40807394166847
1.40807210409069
1.40804383325186
1.40806670228537
1.40807333893401
1.40805348145214
1.40807380057149
1.40807205313085
1.40804290402447
1.40806611524525
1.40807330983814
1.40805342949597
1.40807376637956
1.40807203661287
1.39676937547726
1.39678345475289
1.39678862916623
1.39677710254215
1.39678939902288
1.39679216364104
1.3967694610517
1.396783525305
1.39678865503459
1.39677674877598
1.39678927340013
1.39679212500553
1.3967689228579
1.39678309668699
1.39678852083777
1.39677668252662
1.39678924669524
1.39679211059855
1.37430361276877
1.37432079902216
1.37431957235476
1.37430086205368
1.37431556048708
1.37432035439602
1.37430358932939
1.37432079034351
1.37431956306759
1.37430067942991
1.37431547231529
1.37432035841907
1.37430372209552
1.37432085030405
1.37431962373915
1.37430064422669
1.37431545355878
1.37432035776402
1.34655320837161
1.34654171170994
1.34654804199828
1.3465583503665
1.34655941607449
1.34654765140526
1.34655320696371
1.34654171137317
1.3465480442723
1.34655821076095
1.34655929779331
1.34654762715926
1.34655321168
1.34654171109474
1.34654803567586
1.34655818445606
1.34655927501403
1.34654762200175
1.31364166278699
1.31364921819271
1.31363908770215
1.31362811825002
1.31363535967449
1.3136306619377
1.3136416664352
1.31364921921382
1.31363908832983
1.31362798741833
1.31363532126075
1.31363065913477
1.31364164172844
1.31364921045275
1.31363908238307
1.31362796165977
1.31363531400469
1.31363065896352
1.2676924288309
1.26764753257146
1.26761203299618
1.2676931721269
1.26763904288297
1.26761396051328
1.26769243479417
1.26764753645662
1.26761203453134
1.26769308769086
1.26763898942061
1.26761394183707
1.26769239727742
1.26764750984474
1.26761202416203
1.26769306810495
1.26763897740721
1.26761393758519
1.21562401960526
1.2154192421366
1.21532399325271
1.21549561458406
1.21536386146057
1.21531711168144
1.21562402635848
1.21541924695016
1.21532399466544
1.21549555425268
1.21536383253914
1.21531710708293
1.21562398278333
1.21541921581818
1.21532398664115
1.21549554435241
1.21536382802225
1.21531710651101
1.14226722392717
1.14265947372482
1.14312264691404
1.14248860183531
1.14279958837443
1.14314917507608
1.14226723051249
1.14265947898979
1.14312265023309
1.14248855919239
1.14279955030303
1.14314915375768
1.14226718984198
1.14265944703584
1.1431226314221
1.14248855075019
1.14279954278241
1.14314914957302
1.41838407963554
1.41867900538666
1.41876114550529
1.41838408910185
1.41867900039676
1.41876115475793
1.41838407965983
1.41867900546131
1.41876114550624
1.41838408937472
1.41867900147168
1.41876115450282
1.4183840795248
1.41867900432966
1.41876114552091
1.41838408938919
1.41867900152116
1.41876115449476
0.431703965077622
0.529570258011525
0.569564082229347
0.660123230518526
0.718915145834735
0.667285954824316
0.550395578603063
0.612274002690564
1.17540121966929
1.4244910681907
1.32902264111555
1.18384435909444
1.14115525936016
1.1380031476414
1.13796227548733
0.359701117487853
0.286543677334496
0.308566536486317
0.365372044039943
0.416224555829999
0.426409700676435
0.406353855701932
0.387093204304347
0.739227963540699
1.24238895891545
1.40788654802151
1.26138195534976
1.15155774577103
1.13819782998648
1.13796259255825
0.300727860543019
0.159598750135709
0.182384277612049
0.232289408701053
0.261459206755675
0.299518758092554
0.295033633635533
0.274800695658226
0.50118549362342
1.16615281243758
1.52968669640373
1.34253547553837
1.16431180436082
1.1385058222013
1.13796323816648
0.211122914554461
0.0893312326052417
0.0999791368977121
0.159518459228196
0.21127302270272
0.256355213241856
0.247884311266536
0.235007241040776
0.384587176734163
0.962981329006329
1.53020776904279
1.42357783084803
1.1823902170949
1.13899248618307
1.13796433439035
0.542488808762944
0.440591458189343
0.474677511988712
0.626897222826047
0.702543842708986
0.687621771244841
0.633359302469545
0.681305733315983
1.20444003409759
1.42935649365837
1.30599733696244
1.16798886383231
1.13952874749707
1.13798073641104
1.13796225297126
0.479862283295495
0.350482459864809
0.326808785528554
0.361759174460226
0.427231221259865
0.470282931737832
0.460783371457316
0.4187833889664
0.765614863131728
1.2662088576035
1.43049817364283
1.24584652401099
1.14677300705571
1.13808193283364
1.1379623894925
0.383997714347432
0.220732815383093
0.245207536480885
0.249014839310974
0.283637023643811
0.340732975443526
0.329430384651516
0.273149175894154
0.503436814635995
1.18408382646025
1.54234219893959
1.32666844935602
1.15791241949605
1.1383019590487
1.13796277394153
0.280922962817311
0.138998135401887
0.150341282127977
0.188576140515131
0.228320941281183
0.275751159807394
0.252515498971868
0.220820090781295
0.354049707822135
0.966851725894396
1.53917705504661
1.4093072803388
1.17543384485223
1.13874183645726
1.13796369459286
0.43170397171519
0.529570283129213
0.569564120543564
0.660123296357799
0.718915176696299
0.667286006345812
0.550395627444497
0.612273994102979
1.17540115014077
1.42449099880281
1.32902261742804
1.18384435913425
1.14115525945154
1.13800314763817
1.13796227548731
0.359701115650018
0.286543677852124
0.30856653451529
0.36537208589641
0.416224634543114
0.426409785890656
0.40635387484568
0.387093205908631
0.739227991330986
1.24238893776354
1.4078865295928
1.26138195749318
1.15155774662883
1.13819782999667
1.13796259255824
0.300727801020571
0.1595987413032
0.182384276071763
0.232289416510506
0.26145923744273
0.29951882821923
0.29503363745042
0.274800688742207
0.501185513030398
1.16615280942357
1.52968666974641
1.34253547100448
1.16431180537814
1.13850582224069
1.13796323816654
0.211122864583688
0.0893312273813775
0.0999791378888284
0.159518469424557
0.211273024782189
0.256355231908957
0.247884313021769
0.235007238214858
0.384587166868256
0.962981342263193
1.53020775434401
1.42357781856154
1.18239021729877
1.13899248624458
1.13796433439055
0.542488148901533
0.440590655041215
0.474676260481474
0.626896692143485
0.702543865273715
0.687621842385756
0.633359329202978
0.681305390439854
1.20443936548771
1.42935581519527
1.30599702227141
1.16798884572377
1.13952874572116
1.13798073627744
1.13796225297068
0.479862253987792
0.35048201041258
0.326808074499512
0.361758478702241
0.427230456235908
0.470282360524372
0.460783413733763
0.418783128309569
0.765614504982072
1.26620841420958
1.4304983172419
1.24584675951785
1.14677303604697
1.13808193315009
1.13796238949239
0.38399839384438
0.220732509005238
0.24520712287005
0.249014685376415
0.283636634312084
0.340732460279819
0.329430396770493
0.27314897039095
0.503436383860097
1.18408369165816
1.54234237053191
1.32666870057906
1.15791246092559
1.13830195980648
1.1379627739424
0.280923572461099
0.138997832717759
0.150340924464826
0.188575800612519
0.228320877114178
0.27575097657848
0.252515397280357
0.220819964147112
0.35404934249
0.966851718665317
1.53917741111945
1.40930758783791
1.17543388826568
1.13874183722567
1.13796369459384
0.43170395249518
0.52956995937869
0.569563672595744
0.660122582403644
0.718914822424184
0.667285198811278
0.550394835103846
0.612274286140897
1.17540239934783
1.42449200932608
1.32902275839282
1.18384429717394
1.1411552568747
1.13800314776236
1.13796227548792
0.359701121902934
0.286543687137593
0.308566560435648
0.365371580772148
0.416223626412488
0.426408651482152
0.406353539089026
0.387093266231494
0.739227880167093
1.24238944487629
1.40788674579753
1.2613818012155
1.15155772007083
1.13819782979492
1.137962592559
0.300728512177138
0.159598888458675
0.182384300239583
0.23228931664577
0.261458865834761
0.299517967311858
0.295033555507662
0.274800780551874
0.501185399500901
1.16615307667897
1.52968707735149
1.34253545523522
1.16431177206117
1.1385058213324
1.13796323816552
0.211123485808077
0.0893313155438975
0.0999791402436171
0.159518360284289
0.21127300196763
0.256354987481897
0.247884272206342
0.235007252680147
0.384587362563198
0.962981222703777
1.5302079717021
1.42357795388376
1.18239019884088
1.13899248482717
1.13796433438668
0.542488086999065
0.440590592624894
0.47467614942597
0.626896633641633
0.702543841232634
0.687621829889778
0.633359324064434
0.681305386358415
1.20443935711068
1.4293558136533
1.30599702459743
1.16798884663818
1.13952874567023
1.13798073627222
1.13796225297066
0.479862267102831
0.350481976956405
0.326808010311341
0.361758411088205
0.427230373448595
0.470282293457989
0.460783421265217
0.418783124368226
0.765614479682377
1.26620839569602
1.43049832609819
1.24584676931313
1.14677303711494
1.13808193316044
1.13796238949239
0.38399846530231
0.22073248174238
0.245207084993274
0.24901466893323
0.283636593544731
0.340732408777118
0.329430406027233
0.273148962933607
0.503436352634292
1.18408367363281
1.54234237950021
1.32666871168282
1.15791246247437
1.13830195983019
1.13796277394242
0.280923638220087
0.138997802917089
0.150340890427842
0.188575766347875
0.228320869972176
0.275750962388673
0.252515397352923
0.220819960228093
0.354049317463202
0.96685170469975
1.53917742081902
1.40930760075744
1.17543389006936
1.13874183724954
1.13796369459385
0.45185777965168
0.15891977996673
0.0841706308182513
0.12153559911065
0.1909985655886
0.253829603271324
0.237268069882576
0.22015743700158
0.317557303460329
0.778550491180988
1.45804053073768
1.47869923790759
1.20145008217603
1.13954469286623
1.13796559989566
0.600685550769443
0.229301051011179
0.0938147280105432
0.105981100038186
0.191718773856282
0.260939391988087
0.245573560444425
0.221852009716647
0.297084884413501
0.697189585152254
1.37868951034436
1.5021780896511
1.21454057651824
1.14001595841123
1.13796672368183
0.700946219640329
0.300907366791178
0.10746931661558
0.104221895626188
0.207909919073294
0.273616113936646
0.254100771550073
0.224077322142205
0.286154794011346
0.634424849460262
1.30726772911515
1.50997842691251
1.22360260866949
1.14040614069332
1.13796767753976
0.525965355842196
0.228157585038395
0.110713611334249
0.147086993558832
0.200105633746757
0.262032489097056
0.234856979024958
0.206461559896006
0.284837394112169
0.775043672185383
1.45377837046326
1.46746448066242
1.19626954763915
1.13934655420951
1.13796504140483
0.658212914365202
0.291369089691329
0.117065783400449
0.124883320717896
0.194258145289512
0.265905408995827
0.242744233297349
0.209045211436127
0.271813263726899
0.664608937237667
1.34839663999106
1.4922365554338
1.21346695169494
1.13998160344679
1.13796650639245
0.714865263890663
0.331854767854444
0.11946568593484
0.111229829647045
0.206587548451086
0.272933969360779
0.255620780573051
0.218489914858323
0.278024172584669
0.633179647936125
1.3154222560114
1.5131279672952
1.22390675530277
1.14039963805303
1.13796762928246
0.451857745879918
0.158919758364267
0.0841706315552773
0.121535611569945
0.190998558219653
0.253829593324747
0.237268057898508
0.220157426027015
0.317557286417254
0.778550492547791
1.45804052379121
1.47869922582904
1.20145008127343
1.13954469291992
1.13796559989594
0.600685533397494
0.229301027998248
0.0938147390703007
0.105981114260583
0.191718752250465
0.260939382534065
0.24557354164475
0.221851992100696
0.297084867093111
0.697189573252895
1.37868949934167
1.50217808412135
1.21454057578294
1.14001595844321
1.13796672368212
0.700946214122778
0.300907352099557
0.107469325036031
0.104221899528399
0.207909904076938
0.273616112606219
0.25410075927666
0.224077310002869
0.28615478387495
0.634424846737067
1.30726772661786
1.50997842497162
1.22360260825763
1.1404061406953
1.13796767753984
0.525965667091145
0.228157681933406
0.110713401665841
0.147086708377252
0.200105696430515
0.2620325656553
0.234856971845167
0.206461563871783
0.284837344445536
0.77504368143669
1.45377866547162
1.46746468891516
1.19626957934262
1.13934655471436
1.13796504140537
0.658213004251987
0.291369330749474
0.117065591109812
0.124883111337979
0.194258475701973
0.265905474825312
0.242744296027931
0.209045279134058
0.271813311664154
0.664608979040312
1.34839676963499
1.49223670812713
1.21346697592645
1.13998160362858
1.13796650639252
0.714865272637452
0.331854930452597
0.119465556296724
0.111229727510434
0.206587773466103
0.272933975867349
0.255620848986238
0.218489985296724
0.278024244231107
0.633179656629323
1.31542225020564
1.51312802364301
1.22390676420717
1.14039963754374
1.13796762927983
0.451858090210166
0.158919977995077
0.084170618396422
0.121535477054825
0.190998643321061
0.253829668536505
0.237268136294612
0.220157544018053
0.317557538056587
0.778550467434134
1.45804061694116
1.47869940435909
1.20145008738376
1.1395446916549
1.13796559989038
0.600685693400402
0.229301265236678
0.0938145937775714
0.105980952207683
0.191719022968097
0.260939482173321
0.245573695904576
0.221852188968525
0.297085107892495
0.697189705642526
1.37868962428242
1.50217817166092
1.21454058519255
1.1400159576374
1.1379667236761
0.700946266853165
0.30090750587051
0.107469220931321
0.104221865653611
0.207910080622085
0.273616128858596
0.254100862572316
0.224077440700101
0.286154912053405
0.634424873085164
1.30726775286173
1.50997846813619
1.22360261720635
1.14040614061479
1.13796767753823
0.525965703497538
0.228157694291585
0.110713382179198
0.147086680442765
0.200105701537504
0.262032575781382
0.234856980475486
0.20646156776877
0.284837343065761
0.775043679203053
1.45377867536235
1.46746469736206
1.19626958065101
1.13934655472939
1.13796504140536
0.658213015981715
0.291369356754065
0.117065573842515
0.124883091161366
0.194258505291225
0.265905481712207
0.242744309339887
0.209045288253701
0.271813317383057
0.664608981335643
1.34839677344249
1.49223671354271
1.21346697689029
1.13998160363428
1.1379665063925
0.714865273833586
0.331854947543155
0.11946554381066
0.111229717714106
0.206587795041683
0.272933976651952
0.255620858236104
0.218489993456165
0.278024251043846
0.633179658412278
1.3154222507787
1.51312802690966
1.22390676475528
1.14039963751523
1.13796762927966
)
;

boundaryField
{
    inlet
    {
        type            calculated;
        value           nonuniform List<scalar> 
24
(
1.41862943577436
1.41862943577436
1.41862943577436
1.41862943577436
1.41862943577436
1.41862943577436
1.41862943577436
1.41862943577436
1.41862943577436
1.41862943577436
1.41862943577436
1.41862943577436
1.41862943577436
1.41862943577436
1.41862943577436
1.41862943577436
1.41862943577436
1.41862943577436
1.41862943577436
1.41862943577436
1.41862943577436
1.41862943577436
1.41862943577436
1.41862943577436
)
;
    }
    outlet
    {
        type            calculated;
        value           nonuniform List<scalar> 
156
(
0.51911727426223
0.954860370778479
0.978967246773029
0.999021299776794
1.03909745991994
1.01954629909894
0.588553583285743
0.669931323130014
0.862488579513926
1.06561494909313
1.0967223739532
1.12212168658461
1.13664280298868
1.13794769178572
1.1379622131775
0.722245198369018
0.46385564495577
1.098703333632
1.09307675489151
1.03657975764191
1.02399754818575
0.667529637851778
0.748451075020552
0.898399235119105
1.06298785804013
1.09763516352889
1.12645352238874
1.13721028849652
1.13795430658164
1.1379622175141
0.519117272493655
0.954860245893042
0.978967252409727
0.99902134241853
1.03909739074794
1.01954627923095
0.588553636476922
0.669931383510856
0.862488626184278
1.06561496333771
1.09672237397341
1.12212168600625
1.13664280297329
1.13794769178728
1.13796221317749
0.722244700478183
0.46385491067715
1.0987033041693
1.09307809086642
1.03658114466632
1.02399828124729
0.667529594948115
0.748450785919869
0.898398939110247
1.06298782331296
1.09763514929331
1.12645351979463
1.1372102891522
1.13795430661998
1.13796221751414
0.519117354902142
0.954861313489456
0.978966963598421
0.999020881787509
1.03909846046468
1.0195465750681
0.588552788795656
0.669930589863131
0.862488137461211
1.06561481132424
1.09672240616865
1.12212170655
1.13664280315377
1.13794769173652
1.13796221317746
0.722244642719479
0.463854853014211
1.09870330586011
1.09307820958407
1.03658126201173
1.02399836374904
0.667529573280825
0.748450754126471
0.898398918613454
1.06298781846883
1.09763514770968
1.12645351950157
1.13721028917789
1.13795430662149
1.13796221751414
1.13796220668337
1.13796207635015
1.13796175909069
1.13796124125829
1.13796068961484
1.13796025564793
1.13795991419296
1.13796221393164
1.13796216307416
1.13796198679855
1.13796156419666
1.1379609726876
1.1379603739916
1.13795993910478
1.13796220668337
1.13796207635015
1.13796175909068
1.13796124125821
1.13796068961472
1.1379602556478
1.13795991419292
1.13796221393184
1.13796216307427
1.13796198679823
1.13796156419615
1.13796097268718
1.1379603739913
1.13795993910579
1.13796220668324
1.13796207634979
1.13796175909083
1.13796124125965
1.13796068961703
1.13796025565049
1.13795991419366
1.13796221393185
1.13796216307427
1.13796198679822
1.13796156419614
1.13796097268718
1.1379603739913
1.13795993910586
0.7104620306667
0.592313262797867
0.451973785211056
0.548600502998558
0.801788909477514
0.767753623368107
0.772907065008326
0.882188133768918
0.71046194409917
0.592313294953076
0.451973678546417
0.548600384954554
0.801788374114914
0.767752938985282
0.772907040525706
0.882188750401547
0.710463055804207
0.59231308067879
0.45197484031684
0.548601931270352
0.801788303861416
0.7677528961414
0.772907049774683
0.882188827303918
)
;
    }
    sides
    {
        type            calculated;
        value           nonuniform List<scalar> 
84
(
1.40369305678284
1.40061438762093
1.39951808985389
1.40369299963492
1.40061444600619
1.39951760646456
1.40369305727995
1.40061439115304
1.39951809252312
1.40369299234536
1.40061442609509
1.39951756462612
1.40369304911174
1.40061435689397
1.39951805685897
1.40369299333855
1.40061442591819
1.39951756483684
1.40019590652126
1.40580948357087
1.40946026768007
1.40019780516008
1.40580968457604
1.40946501900136
1.40019596667148
1.40580950372434
1.40946037878722
1.40019764388681
1.40580955864305
1.40946496610902
1.40019546461983
1.40580933402433
1.40945956772473
1.4001976256968
1.40580956656826
1.40946495085213
1.40804366976818
1.40805372633236
1.40804383325186
1.40805348145214
1.40804290402447
1.40805342949597
1.39676937547726
1.39677710254215
1.3967694610517
1.39677674877598
1.3967689228579
1.39677668252662
1.37430361276877
1.37430086205368
1.37430358932939
1.37430067942991
1.37430372209552
1.37430064422669
1.34655320837161
1.3465583503665
1.34655320696371
1.34655821076095
1.34655321168
1.34655818445606
1.31364166278699
1.31362811825002
1.3136416664352
1.31362798741833
1.31364164172844
1.31362796165977
1.2676924288309
1.2676931721269
1.26769243479417
1.26769308769086
1.26769239727742
1.26769306810495
1.21562401960526
1.21549561458406
1.21562402635848
1.21549555425268
1.21562398278333
1.21549554435241
1.14226722392717
1.14248860183531
1.14226723051249
1.14248855919239
1.14226718984198
1.14248855075019
)
;
    }
}


// ************************************************************************* //
