/*--------------------------------*- C++ -*----------------------------------*\
  =========                 |
  \\      /  F ield         | OpenFOAM: The Open Source CFD Toolbox
   \\    /   O peration     | Website:  https://openfoam.org
    \\  /    A nd           | Version:  11
     \\/     M anipulation  |
\*---------------------------------------------------------------------------*/
FoamFile
{
    format      ascii;
    class       volScalarField;
    location    "0.0000800073";
    object      T;
}
// * * * * * * * * * * * * * * * * * * * * * * * * * * * * * * * * * * * * * //

dimensions      [0 0 0 1 0 0 0];

internalField   nonuniform List<scalar> 
900
(
1894.09111292615
1892.87592304554
1892.43946008291
1894.19001924812
1892.94289183152
1892.50326764677
1894.25818143568
1892.97183194609
1892.54249454994
1894.09109010273
1892.87593874485
1892.43928834897
1894.18998935878
1892.94292830167
1892.50300804642
1894.25818365424
1892.97184397529
1892.54251616842
1894.09111290471
1892.87592457598
1892.43946152296
1894.19001877884
1892.94289360471
1892.5032673361
1894.25818110154
1892.97183258798
1892.54249333876
1894.09108825504
1892.8759300517
1892.43927089905
1894.18998758064
1892.94292206061
1892.5029939083
1894.25818362649
1892.97184021831
1892.54251696908
1894.09111255857
1892.87590893318
1892.439444034
1894.19001951125
1892.94287940784
1892.50326763966
1894.25818190901
1892.97182540294
1892.54249612948
1894.09108869615
1892.87592994139
1892.43927087157
1894.1899880968
1892.94292161037
1892.50299455559
1894.25818395221
1892.97183982057
1892.54251768983
1892.7095046575
1894.94770670385
1896.43429396719
1892.76176388312
1895.00087884765
1896.46140746846
1892.80037651524
1895.01357509955
1896.47403154068
1892.71027184789
1894.94775977924
1896.43618750004
1892.76260497247
1895.00058206677
1896.46382009864
1892.80033959101
1895.01355314329
1896.47347747645
1892.70952871789
1894.94771413046
1896.4343388796
1892.76178576831
1895.00088069899
1896.46146580176
1892.80038309108
1895.01357985479
1896.47404177877
1892.71020763512
1894.94771213932
1896.43616110041
1892.76256279738
1895.00054070533
1896.46385638703
1892.80027564771
1895.01351894661
1896.47331237965
1892.7093283044
1894.9476525942
1896.43400529691
1892.76160527515
1895.00085886341
1896.46101708413
1892.8003296139
1895.01349718982
1896.47396222211
1892.71020035496
1894.94771544783
1896.43615501532
1892.76255757598
1895.00054205337
1896.46386159362
1892.80026669188
1895.0135180894
1896.47328659215
1895.88331602846
1895.89232500053
1895.89476899965
1895.887291241
1895.89522526736
1895.89431616523
1895.88338212949
1895.8923663782
1895.89477356738
1895.88718686929
1895.89516375469
1895.89429298801
1895.88299777988
1895.89212719322
1895.89475816034
1895.88716605185
1895.89515003743
1895.89428646222
1891.39010874733
1891.39575291062
1891.39785716412
1891.3931872401
1891.39814293519
1891.39928494498
1891.39014374606
1891.39578131363
1891.39786754661
1891.39304085078
1891.39808883351
1891.39926642657
1891.38991631877
1891.39560464078
1891.39781099334
1891.39301449781
1891.39807814108
1891.39926057666
1882.31547329354
1882.32246601016
1882.3220027546
1882.314312457
1882.32033341911
1882.32232459793
1882.31546348654
1882.32246214245
1882.32199890254
1882.31424287077
1882.32030015112
1882.32232610545
1882.31551929817
1882.32248884452
1882.32202420147
1882.31422939322
1882.32029296458
1882.32232582698
1870.92607488625
1870.9212637496
1870.92378110491
1870.92821519187
1870.9285814121
1870.92361473594
1870.92607374527
1870.92126314075
1870.92378191711
1870.92816552141
1870.9285390173
1870.92360642808
1870.92608491974
1870.92127038694
1870.92378074469
1870.92815519139
1870.92853005808
1870.9236043853
1857.16210225967
1857.16549866058
1857.16169657123
1857.15619831457
1857.15965852349
1857.15822338771
1857.16210346658
1857.16549872774
1857.16169646167
1857.15615029694
1857.15964476352
1857.15822754684
1857.1621021161
1857.16550259904
1857.16169920223
1857.15613960125
1857.15964123743
1857.15822785995
1837.58357576139
1837.56361287076
1837.54050567807
1837.58384229795
1837.5594723509
1837.54077724392
1837.58357816667
1837.56361432102
1837.54050646403
1837.58381394974
1837.55945497819
1837.54077192771
1837.58357083384
1837.56361165729
1837.54050560426
1837.58380555583
1837.559449418
1837.54076968409
1814.52061842638
1814.43615807763
1814.40881868587
1814.46010030242
1814.41192036128
1814.40615236654
1814.52062091868
1814.43615977586
1814.40881922041
1814.46008568166
1814.41191520251
1814.40615437236
1814.52061270057
1814.43615581877
1814.40881991167
1814.46008202719
1814.41191317015
1814.40615412025
1780.88436920465
1781.07514281837
1781.31363722944
1780.99446940834
1781.1475418893
1781.32667640274
1780.88437160644
1781.07514506912
1781.31363878501
1780.9944571653
1781.14752677231
1781.32666737166
1780.8843615627
1781.07513445634
1781.31363107258
1780.99445370965
1781.14752314968
1781.32666539946
1899.9075446809
1900.02934997511
1900.06634027688
1899.90754852435
1900.02934798907
1900.06634377783
1899.90754467371
1900.02934998706
1900.06634027364
1899.9075487138
1900.02934853718
1900.06634373733
1899.907544852
1900.02934977633
1900.06634032408
1899.90754872206
1900.02934856268
1900.06634373812
347.512141825161
511.790870236087
478.914677132863
432.070214256298
417.602317994075
436.922912211893
548.305490994168
508.381001209776
403.185650710178
327.207208594073
315.747043218918
305.761508345898
300.506147708623
300.006456378716
300.000007893308
420.369549198809
986.280472490643
998.835558561027
872.619167798949
771.383457302653
735.150632462079
717.689294854094
744.392258613235
621.43661527589
379.308899240213
324.448482705003
309.355140207088
301.257033239126
300.025918689136
300.00004858863
421.291079043808
1136.22826956217
1299.96896307182
1257.51752883678
1140.76944448459
1038.35486129151
977.949554284638
1014.31904519845
920.837903964505
517.329287988526
351.323516933351
316.098717069403
302.360055238778
300.059110932794
300.000138825414
685.092543497924
872.969726401805
1082.7896107029
1396.08995385857
1393.8746675469
1331.13376459248
1233.60671581687
1213.01182526767
1221.11610880287
745.727305882301
393.222014532597
325.030449085863
303.645769043927
300.102725750831
300.000281767489
382.430730487737
706.802087501878
669.665026286324
512.323400473908
423.188739475836
423.042530312545
490.555301811835
454.34895541808
386.405449676775
328.45385328584
315.182981914252
304.084490943048
300.269711497087
300.003163431877
300.000004780235
478.516893006271
976.808204922768
1005.74442717421
881.01717435582
747.37574152543
665.595805392202
614.07189394762
648.820666226345
580.240319009596
383.016842534066
327.162387775614
308.202560281026
300.80916172496
300.013014422323
300.000021598974
577.622117197745
1242.4316600972
1239.00445563659
1157.73980119277
1055.01051031885
933.518488911574
863.154116209551
910.893379772009
865.696659126685
517.903514954477
353.631093563664
314.879220248273
301.775500494222
300.036877659202
300.000075957599
919.761238987021
1071.61132224568
1216.98834659328
1304.52483869015
1304.73583388108
1250.54198731673
1139.61314188954
1131.75107980917
1163.32713857217
741.257755386594
395.221656076494
323.755310475195
303.061737394044
300.07781922895
300.000198351445
347.512117512979
511.790798997081
478.914663385378
432.07019542143
417.602263835157
436.922872609308
548.305437342612
508.38095383757
403.185624375243
327.207201449916
315.747042080921
305.761508463302
300.506147718923
300.00645637812
300.000007893307
420.369549169024
986.280368810233
998.835542263767
872.619114977324
771.383305395375
735.15049563007
717.689184925618
744.39217975419
621.436556059777
379.308880223995
324.448480457099
309.355140651086
301.257033337081
300.025918690282
300.000048588628
421.291085635077
1136.22823505709
1299.96898155507
1257.51748426621
1140.76926946819
1038.35466119301
977.949364555186
1014.31892660931
920.837815302834
517.329253690728
351.323511583884
316.098716990133
302.360055359925
300.059110937036
300.00013882542
685.092515083185
872.969718569165
1082.78967517819
1396.08995097627
1393.87457776437
1331.13358941896
1233.60652749855
1213.01173024834
1221.11602675325
745.727269205546
393.222007350766
325.030447933256
303.645769089627
300.102725757134
300.000281767512
382.430868622839
706.803062113539
669.666709220615
512.324778329294
423.18950125065
423.042857780999
490.555360125032
454.349114036311
386.405581801116
328.453839486995
315.182962829131
304.084487761839
300.269711004808
300.003163409639
300.000004780167
478.516502098629
976.808821039237
1005.74586181339
881.019064981064
747.377678043496
665.596591475762
614.072058711961
648.820964305755
580.240709181971
383.016830842889
327.162387656184
308.202579970925
300.809164616281
300.013014462231
300.000021598978
577.62100420284
1242.43130219459
1239.0044007422
1157.74110458438
1055.01261674527
933.519765951115
863.154635181213
910.893766721197
865.69720608508
517.903622609216
353.631104469815
314.879243073769
301.775504583887
300.036877746231
300.00007595771
919.759926552127
1071.61055902192
1216.98693431973
1304.52563580237
1304.73745048073
1250.54349972264
1139.61388325046
1131.75143417071
1163.32761253158
741.25790089752
395.221689744519
323.755336531524
303.061741354693
300.077819313491
300.00019835157
347.512410793359
511.791465720902
478.914705071867
432.07041336629
417.603035716492
436.923499533112
548.306259168361
508.381582608928
403.185923179497
327.207287493731
315.74704467254
305.761501446168
300.506147530266
300.006456399697
300.000007893363
420.369538066487
986.281308082958
998.835522206571
872.619642437059
771.385257810989
735.152338775358
717.690677558303
744.393153474619
621.437164628265
379.309081127165
324.448500952545
309.355124404672
301.257030746591
300.025918668737
300.000048588717
421.291064346142
1136.22873629214
1299.96863284394
1257.51793166209
1140.77139430215
1038.35710143311
977.951740136284
1014.32041072912
920.838741884751
517.32956945937
351.323569092345
316.098711097582
302.360052193504
300.059110844995
300.000138825333
685.093012130312
872.970076862335
1082.78901558978
1396.09001924087
1393.87566567378
1331.13561368403
1233.60877958529
1213.01288700743
1221.11690342123
745.72753749527
393.222072070432
325.030459956527
303.645767517204
300.102725623725
300.000281767079
382.430872397207
706.803142146844
669.666863005687
512.324909815277
423.189580630478
423.042906929104
490.555387377672
454.349132941179
386.405591767053
328.453841136661
315.182963026408
304.084487786446
300.26971098769
300.003163408772
300.000004780164
478.516460380365
976.808874869423
1005.74599872915
881.019250014822
747.377878017442
665.596701122489
614.072092807293
648.820978275583
580.240734438585
383.016836179826
327.162388410514
308.202580715011
300.809164715524
300.013014463525
300.000021598979
577.620897761204
1242.43126893989
1239.00439748685
1157.74123288454
1055.01282940502
933.519920008449
863.154705522656
910.893791362253
865.697243200362
517.903637443897
353.631106461112
314.879244021933
301.77550472262
300.036877748846
300.000075957712
919.759796774901
1071.61047991106
1216.98680061363
1304.52570776759
1304.73760826432
1250.54366181391
1139.61398167959
1131.75146945831
1163.32764650783
741.257919080524
395.221693143845
323.755337727036
303.061741498134
300.077819315786
300.000198351571
1411.16125011246
918.171435218748
859.982994769916
1169.18011895461
1467.83206879919
1481.42786302886
1406.01818310933
1326.86388934717
1421.54386316932
998.750403147786
457.508081122675
334.971579432409
304.677913820953
300.141447943842
300.000431876139
1464.02943451515
1050.94664925438
825.049663933239
934.344201787246
1385.5037463844
1508.72371264754
1458.02706860697
1368.09358242597
1490.68144077986
1175.8126862352
522.025164840496
343.291133493153
305.336500480274
300.167009404835
300.000547576956
1517.66256818173
1151.00545916732
854.811029950056
861.94741095214
1308.84431340127
1496.88597542122
1456.72940569966
1374.30813689509
1511.24822393102
1265.07473505012
568.355730521
349.244588510606
305.891779861893
300.187441815369
300.000636060624
1467.40357371753
1070.2097572815
1016.58850922434
1217.52551050464
1419.25870276257
1457.73489622214
1366.94792880889
1271.01191251395
1358.14986513122
986.784734445441
455.752348316209
333.705944300474
304.243644990555
300.123184043763
300.00036280295
1507.03591852195
1148.92994532703
920.444818791353
1028.53474939211
1361.06544058494
1504.80571303051
1446.77442159147
1333.70598232609
1440.04746694661
1150.97442230621
513.256250319678
342.084772399352
305.25508078759
300.162942795682
300.000519315204
1527.25608673317
1191.02692235387
888.988316891629
894.512321249956
1303.58281891172
1495.7300963658
1459.4240162087
1362.72880550735
1494.9945793806
1262.5387130124
570.507920926276
349.912827664305
305.920741468461
300.186470910339
300.000629619798
1411.16124815208
918.171362978645
859.983064085141
1169.18022050689
1467.83203459581
1481.42777049613
1406.01807644702
1326.86382306739
1421.54381630171
998.750380049661
457.508074577205
334.97157789343
304.67791376424
300.141447948995
300.000431876173
1464.02942612953
1050.9466220406
825.049700515665
934.344303681215
1385.50371649331
1508.72370422149
1458.02704095863
1368.09353755402
1490.68141574583
1175.81267867208
522.025161303104
343.291132700836
305.336500420252
300.167009407741
300.000547576992
1517.6625624765
1151.0054514929
854.811027862475
861.947422242339
1308.84430605501
1496.88598485127
1456.72939717628
1374.30812994111
1511.24822344918
1265.07473825486
568.355730438417
349.244588250431
305.891779823704
300.187441815509
300.000636060633
1467.40347106647
1070.21067713486
1016.58576842844
1217.52422158094
1419.25969444601
1457.73561726388
1366.9484738601
1271.01227568342
1358.1501426496
986.78486255404
455.752385805145
333.705960918999
304.243647869124
300.123184103418
300.000362803038
1507.03594282026
1148.9303454876
920.444053500098
1028.53289716549
1361.06615032151
1504.80563953725
1446.77451583705
1333.70627951153
1440.0476412272
1150.97445638681
513.256268398712
342.084786960239
305.255083048138
300.1629428302
300.000519315257
1527.25614515973
1191.02691452383
888.988314776225
894.511812085895
1303.58302658522
1495.72994964396
1459.42398081216
1362.72885177318
1494.99463556504
1262.53867732271
570.507923209248
349.912836570654
305.920742471172
300.186470871507
300.000629619518
1411.16125875318
918.172121005448
859.982332893412
1169.17919785888
1467.83258438361
1481.42882278215
1406.0192467403
1326.86462095361
1421.54435546663
998.750499719577
457.508119757914
334.971599220997
304.67791435768
300.141447840064
300.000431875523
1464.02951917299
1050.9469029541
825.04925005717
934.343212655257
1385.5042700109
1508.72387031593
1458.02730731103
1368.09408075672
1490.68175740028
1175.81267855512
522.025177269898
343.291143930171
305.336501367902
300.167009340373
300.00054757628
1517.66262814629
1151.00552750127
854.811057660583
861.94734584935
1308.84451950494
1496.88591887828
1456.72946571666
1374.30820438337
1511.24825510758
1265.07466722229
568.355724587053
349.24459437056
305.891780689624
300.187441810097
300.000636060446
1467.40345980994
1070.21076835896
1016.58549887925
1217.52408658695
1419.25977966716
1457.73569620155
1366.94854618973
1271.01231350296
1358.15016574964
986.784881292869
455.752390464068
333.705961722543
304.24364796601
300.123184104852
300.000362803036
1507.03594487668
1148.9303863983
920.443978884824
1028.53270840811
1361.06620220384
1504.80563038915
1446.77453410899
1333.70631033407
1440.04765563321
1150.97446450727
513.25627051559
342.08478749381
305.255083130777
300.162942831262
300.000519315255
1527.25615062955
1191.02691481782
888.988312332574
894.511759792157
1303.5830354546
1495.72993273726
1459.42397908167
1362.72885798618
1494.99463853163
1262.53867685956
570.50792381466
349.912837092221
305.920742532547
300.186470869286
300.000629619499
)
;

boundaryField
{
    inlet
    {
        type            timeVaryingMappedFixedValue;
        fieldTable      T;
        value           nonuniform List<scalar> 
24
(
1899.99990997816
1899.99990997816
1899.99990997816
1899.99990997816
1899.99990997816
1899.99990997816
1899.99990997816
1899.99990997816
1899.99990997816
1899.99990997816
1899.99990997816
1899.99990997816
1899.99990997816
1899.99990997816
1899.99990997816
1899.99990997816
1899.99990997816
1899.99990997816
1899.99990997816
1899.99990997816
1899.99990997816
1899.99990997816
1899.99990997816
1899.99990997816
)
;
    }
    outlet
    {
        type            freestream;
        freestreamValue uniform 300;
        value           nonuniform List<scalar> 
156
(
300
300
300
300
300
300
548.21585886654
507.750200901028
402.399282894067
327.079328783523
315.688902379183
305.707588731113
300.495960008761
300.006235775007
300.000007491259
300
706.450224165545
300
300
300
300
490.589733483255
453.895068078155
385.837960349238
328.334359949757
315.09994547684
304.036257000105
300.264496498534
300.003078278058
300.000004615943
300
300
300
300
300
300
548.215805209508
507.75015360002
402.399256727426
327.079321732319
315.688901265306
305.707588847814
300.495960017981
300.006235774405
300.000007491259
300
706.451199976254
300
300
300
300
490.589791476867
453.895225445812
385.838090062012
328.33434550746
315.099926533328
304.036253783717
300.264495995208
300.003078255876
300.000004615876
300
300
300
300
300
300
548.216627065048
507.750782028378
402.399553803192
327.079406498467
315.688903544972
305.70758193026
300.495959859041
300.006235795998
300.000007491312
300
706.451280070121
300
300
300
300
490.589818711639
453.895244267415
385.838099927578
328.334347125143
315.099926729955
304.036253804597
300.264495977638
300.003078255014
300.000004615874
300.000007491259
300.000046385207
300.000132919749
300.00027030482
300.000414720772
300.000525931191
300.000611107282
300.000004615943
300.000020725652
300.000072838277
300.000190419001
300.000348500723
300.000498839988
300.000604856291
300.000007491259
300.000046385205
300.000132919755
300.000270304841
300.000414720804
300.000525931226
300.000611107291
300.000004615876
300.000020725653
300.000072838381
300.00019041912
300.000348500808
300.000498840041
300.000604856024
300.000007491312
300.000046385294
300.000132919679
300.000270304433
300.000414720181
300.000525930538
300.00061110711
300.000004615874
300.000020725654
300.000072838383
300.00019041912
300.000348500806
300.000498840039
300.000604856006
300
300
300
300
300
300
300
300
300
300
300
300
300
300
300
300
300
300
300
300
300
300
300
300
)
;
    }
    sides
    {
        type            zeroGradient;
    }
}


// ************************************************************************* //
