/*--------------------------------*- C++ -*----------------------------------*\
  =========                 |
  \\      /  F ield         | OpenFOAM: The Open Source CFD Toolbox
   \\    /   O peration     | Website:  https://openfoam.org
    \\  /    A nd           | Version:  11
     \\/     M anipulation  |
\*---------------------------------------------------------------------------*/
FoamFile
{
    format      ascii;
    class       volVectorField;
    location    "0.0000800073";
    object      U;
}
// * * * * * * * * * * * * * * * * * * * * * * * * * * * * * * * * * * * * * //

dimensions      [0 1 -1 0 0 0 0];

internalField   nonuniform List<vector> 
900
(
(-0.631258963592584 -1.09341265426816 682.49920579129)
(-0.457149656770168 -0.791828513528877 684.032354996741)
(-0.317606193318813 -0.550169647143549 684.332611243702)
(-0.312042669246618 -0.540513186575843 682.205242345228)
(-0.204016794198375 -0.353392958616118 683.875176954053)
(-0.154258520500606 -0.267224384410207 684.261374774086)
(-0.243603499438321 -0.421975726038658 681.604862027371)
(-0.142967908222575 -0.247646980477253 683.521051444516)
(-0.119574566255786 -0.207134664746402 683.986164929907)
(-1.26250082345159 -2.64826683861551e-06 682.499243058037)
(-0.914363418667533 9.28278093941217e-07 684.032412969558)
(-0.634193506794784 -5.86506837660881e-06 684.333150751496)
(-0.624044254575632 -2.5618340778266e-06 682.205282307059)
(-0.407992391512182 -5.11357395939585e-07 683.875353256906)
(-0.307907632723115 -3.13253484137511e-06 684.261686830933)
(-0.487215571858573 -1.89395392503652e-06 681.604885678377)
(-0.285947910895692 -1.26162424091456e-06 683.521107971196)
(-0.238942095545971 -2.62014413697543e-06 683.986312978294)
(-0.631259427013667 1.09340898727073 682.499206466175)
(-0.457150062087904 0.791829150094221 684.032353016293)
(-0.317603846650841 0.550155605734368 684.332611531509)
(-0.312042811191863 0.540509795183724 682.205241411605)
(-0.204017459087199 0.353391911064829 683.875177544143)
(-0.154258613022293 0.267217773885796 684.261377034655)
(-0.243603487258824 0.421972063181694 681.604861175638)
(-0.142968484067969 0.247645038862138 683.521052157901)
(-0.119574806954158 0.207128548988657 683.986167122293)
(0.631286759834931 1.09337082027245 682.499246340225)
(0.45719273433173 0.791881992010099 684.032427395467)
(0.3171493368839 0.54922141393771 684.333177957741)
(0.312056848728187 0.540450984103176 682.20528554396)
(0.204012732187505 0.353342627543678 683.87536584617)
(0.153979981251712 0.26664771381268 684.261705372754)
(0.24364340586195 0.421957145724381 681.604888996367)
(0.142991227394536 0.247647323997247 683.52110984185)
(0.119488548899068 0.206925592869075 683.986312974256)
(1.26258451777075 -2.25749277556569e-06 682.499202545278)
(0.914322992086543 -6.42986390248861e-08 684.032373318365)
(0.635365670997239 -5.09578046467649e-06 684.332616929944)
(0.624151396639733 -1.82856111986587e-06 682.205245566333)
(0.408068670065508 -1.22502177782963e-06 683.875178988338)
(0.308596793310576 -3.46755352113221e-06 684.26137236155)
(0.487279262505208 -1.84123171745725e-06 681.604868153364)
(0.285960680145415 -1.50849705844008e-06 683.521048363719)
(0.239194437956471 -3.2982388824173e-06 683.986154263976)
(0.6312856882686 -1.09337431298264 682.499245379652)
(0.457194409906396 -0.791883087225386 684.032426989313)
(0.317148479535037 -0.549231534077935 684.333176784581)
(0.31205582442334 -0.54045442442527 682.205285306375)
(0.204013915487279 -0.353345547982772 683.875364878109)
(0.153980582129449 -0.26665494702459 684.261704191986)
(0.243643024284112 -0.421960319508272 681.604889278337)
(0.142991720257714 -0.247650688992321 683.521109262932)
(0.119488689035665 -0.206931068363082 683.986310866154)
(-0.173855458328348 -0.300966337482071 683.478806589983)
(-0.112910768524756 -0.195648072624413 679.289498172819)
(-0.0331665034886807 -0.0571885073735674 676.487561929978)
(-0.0805720888853174 -0.139374335610309 683.466590451274)
(-0.0551557613162259 -0.0955236511908264 679.316833454635)
(-0.00316134706440522 -0.00528731232386431 676.509490856756)
(-0.0691671207900838 -0.119563111255045 683.347346929073)
(-0.0336122965496966 -0.0586321515542065 679.331917023878)
(-0.00860571922796057 -0.0138029026837991 676.533262989514)
(-0.350823838485955 1.99901296534112e-05 683.477577428279)
(-0.222154070651592 -1.3688820623107e-05 679.290649233461)
(-0.0719878651080247 3.57758995188502e-05 676.482965181611)
(-0.163783724632869 2.02250851757245e-05 683.466598738229)
(-0.106605421107934 -2.69744003307021e-06 679.316391466018)
(-0.0168780942634475 7.38715610590299e-06 676.508799854706)
(-0.139160649063355 2.96153935496244e-05 683.346151192567)
(-0.0667542560562079 -2.69013876181425e-05 679.330212218638)
(-0.018176896274444 7.82556918100333e-05 676.535411883529)
(-0.173878578025398 0.301028172471922 683.478771081112)
(-0.112896660495093 0.19560524289155 679.289493795816)
(-0.0332240711159871 0.0573062289818718 676.487477293126)
(-0.0805974118720903 0.139442637357458 683.46657037088)
(-0.0551274061573019 0.0954670474160967 679.316816798288)
(-0.00326084885983986 0.00546434977642511 676.509450774657)
(-0.0691821030789042 0.119620871104635 683.347328792791)
(-0.0336189823091383 0.0585756229570823 679.331923565672)
(-0.00863985667701197 0.0139840495478773 676.533264207217)
(0.175250944740279 0.30386484213702 683.477669693889)
(0.111214721549026 0.192385911508681 679.290794311073)
(0.0355858000559464 0.0622566423815421 676.482958680767)
(0.0817062782941644 0.141844475379541 683.466737189077)
(0.0534241729845379 0.0924213859770471 679.316536615754)
(0.00824469426426766 0.0144516145426157 676.508919846302)
(0.069256888887599 0.120426544309948 683.346120939983)
(0.0335953856520636 0.0578240258394399 679.329715025576)
(0.00798718597208524 0.0151728220467486 676.535671169239)
(0.347109080600745 1.09104178832531e-05 683.479068307705)
(0.226238604174341 -1.11312965143821e-05 679.28953175173)
(0.0651704847742061 8.86504777734116e-06 676.48808164243)
(0.160479703537068 1.21563372297306e-05 683.466740224735)
(0.110723896727519 -2.89959194492063e-06 679.316952492115)
(0.00476267812845419 2.25924357144608e-06 676.509748943939)
(0.137726904330038 1.58661837356364e-05 683.347485194507)
(0.0678230678161724 -3.56270012521749e-05 679.331900737486)
(0.0149746107506919 6.14983309227726e-05 676.533278859692)
(0.175262522992644 -0.30384488000556 683.477677990406)
(0.111220641420034 -0.192421009680019 679.290795617336)
(0.0356088464444361 -0.0622248543763421 676.482958237333)
(0.0817158644318108 -0.141820379685412 683.46675325409)
(0.0534479525395342 -0.0924736499010702 679.316549368462)
(0.0082497146067415 -0.014446334955221 676.508944770917)
(0.0692639651350564 -0.120380131453311 683.346115914503)
(0.033608011104275 -0.0578821286526745 679.329645032478)
(0.00798927720510468 -0.0150175121794671 676.535714851869)
(-0.0102005374959452 -0.0173380953156467 675.842204680455)
(0.00148960322024627 0.00300700657284345 675.861411585863)
(-0.00261732232110731 -0.00366153483577646 675.893520137652)
(-0.0295192205580068 5.94789975416322e-05 675.834454932129)
(-0.00809495893175619 6.71402998209377e-05 675.859703544056)
(-0.00674966431302143 8.20059342576059e-05 675.895003441448)
(-0.010289827198003 0.017521969306084 675.842106082736)
(0.00140781479459197 -0.00281914399474402 675.861388163029)
(-0.00264575779383338 0.00381808178702725 675.893537759192)
(0.0142405251869683 0.025524148067965 675.834558981657)
(0.00340715785410653 0.0068611526890886 675.859811867859)
(0.00252384771759655 0.00557748885595821 675.89506811939)
(0.0189396618241772 1.43578949915234e-05 675.84263757556)
(-0.00453028600204771 2.23460541539527e-05 675.86147628892)
(0.00349862975272178 5.33760366382566e-05 675.893423678496)
(0.0142782896748564 -0.0254713419457385 675.834586856111)
(0.00343700558665525 -0.00677923807213025 675.859837466068)
(0.00255052795821878 -0.00545961699600999 675.895079495938)
(-0.000236762955589943 0.000186371331532282 681.911923932091)
(0.00483727563423359 0.00910208525673246 681.924880745713)
(0.00165076364636806 0.00382734656617094 681.946608651383)
(-0.00977276351287908 7.25766312095721e-05 681.907801654817)
(0.00176324583919814 8.25655013327019e-05 681.923935599008)
(-0.000665216944090379 8.86166459135752e-05 681.94648989668)
(-0.000299965672254668 -4.25652047112936e-06 681.911874873691)
(0.0047828520621306 -0.00891325524638153 681.9248642911)
(0.00162541246293521 -0.00364845202489899 681.946612989737)
(0.00422461178898147 0.00833504089809605 681.907945737766)
(-0.00168910381898369 -0.00177847747168998 681.924010752576)
(-0.00056552041958678 0.000270316521841306 681.946512467753)
(-0.0011288416483481 3.59569360055195e-05 681.912165622977)
(-0.0114107837819217 4.67809346096671e-05 681.924961386695)
(-0.00514825162744031 6.6717464627337e-05 681.946597907115)
(0.00425711654766792 -0.00824674510334864 681.907976661028)
(-0.00166372661234448 0.00189929615944892 681.924026989206)
(-0.000543505303380559 -0.000131238474634264 681.946516211717)
(-0.018940994305842 -0.0320939657237342 694.737738582546)
(-0.0090357515207251 -0.0148896985937457 694.747967208848)
(-0.00513687779507977 -0.00795519576572438 694.763638855483)
(-0.020253919255763 7.74760661701152e-05 694.739925725755)
(-0.00395819277377604 8.48348622576343e-05 694.746083403707)
(-0.00717411915430208 7.90314932780891e-05 694.761490390851)
(-0.0189827412213561 0.0322515074964044 694.737759713469)
(-0.00907272068947794 0.0150467990194409 694.747992450092)
(-0.00515067854674364 0.00810128118606816 694.76365598045)
(0.00932342465548815 0.0172577660197713 694.739929064349)
(0.00109352208875366 0.00308900694683387 694.746065265108)
(0.00270486031474036 0.00583032386027292 694.761451393332)
(0.0363165014378387 4.24052616448908e-05 694.737625046104)
(0.0164742556062566 4.62842933353845e-05 694.747840739303)
(0.00861024771820473 6.06084521113806e-05 694.763563287823)
(0.00934378709550818 -0.0171385244010011 694.739932697143)
(0.00111199349331946 -0.0029516929786921 694.746063027208)
(0.00271441188366865 -0.00568939002621418 694.761441791718)
(0.0308669073155806 0.054229513508429 710.994705646892)
(0.0172325845791694 0.0306367992928902 710.997653750201)
(0.00776009643764504 0.0143489159381874 711.019949608222)
(0.018819637242323 7.89636743772278e-05 710.993765144568)
(0.0099725049652803 8.07786855305226e-05 711.00104214004)
(0.00455646499987268 7.73351669128374e-05 711.016186935636)
(0.0308469922347673 -0.0540857127562031 710.994715190194)
(0.0172136840932078 -0.0304908216278182 710.997666453728)
(0.00775250603411127 -0.0142021452500836 711.019957288456)
(-0.0101800353969037 -0.0165596986882932 710.993739959232)
(-0.00578355121986675 -0.00892555166803075 711.001017054867)
(-0.00307444679167112 -0.0042773474506605 711.016142720192)
(-0.0631782580091532 5.45519496223561e-05 710.994655342027)
(-0.0359330166703308 5.65290225721172e-05 710.997591802552)
(-0.0170604819779959 6.66976871874622e-05 711.019914514192)
(-0.0101634960217241 0.0166887558763605 710.993735483774)
(-0.00576907613634367 0.00906184504356747 711.001012147698)
(-0.00306671302932327 0.00441838809741216 711.016133668104)
(-0.0247448533741502 -0.0417793926046812 731.049922984798)
(-0.01079886724734 -0.0176146126496869 731.045025560303)
(-0.00520954325845893 -0.0077563345423943 731.040490947652)
(0.00370585611178809 9.038465089163e-05 731.053144071543)
(0.0115248183304814 8.98271068314945e-05 731.047358184367)
(0.00553200795427055 8.97376312500914e-05 731.042655425987)
(-0.024758719388038 0.0419502402046041 731.04993096803)
(-0.0108115752051471 0.0177854346685352 731.045032279982)
(-0.00521089822466592 0.00793668289105327 731.040495088702)
(-0.0028316834400017 -0.00364200128484335 731.053140904077)
(-0.00675918422883587 -0.0104486135389062 731.047320976761)
(-0.00378440356357092 -0.00529041024809948 731.042630906746)
(0.0476244744670484 7.34711510992022e-05 731.049886186919)
(0.0197258513473857 7.44274062108871e-05 731.044993573806)
(0.008375470445678 8.89937987118632e-05 731.040471259573)
(-0.00282221918544249 0.00380640056380147 731.053139836624)
(-0.00675427462759051 0.0106198023552651 731.047313189252)
(-0.00378342867459461 0.00546821880882931 731.0426259063)
(0.00359729248634596 0.00725788291512451 759.504769227119)
(-0.0045253397573801 -0.00678915035340344 759.53993354386)
(-0.00184332426076652 -0.0021096923188651 759.558816700884)
(-0.0193382064926346 7.05516870926112e-05 759.501112206926)
(-0.0348569699745454 7.03873470877023e-05 759.535572827537)
(-0.0185913284278035 7.16991644634443e-05 759.554107163248)
(0.00359520216087725 -0.00712150385265603 759.504775478424)
(-0.00452697450625587 0.00692906644836402 759.53994030657)
(-0.00184342865291614 0.00225249972030643 759.558822965908)
(0.00878818164716668 0.016298024905904 759.501086288896)
(0.0165414193597198 0.0297257100881534 759.535536467174)
(0.00840356343978797 0.0156456504618258 759.55406625831)
(-0.00888752934504001 6.63785360345229e-05 759.504734906468)
(0.00732903312571638 6.85449060019487e-05 759.53989896077)
(0.00192752862830861 7.13176041115045e-05 759.558782961451)
(0.00878621491581033 -0.0161534765402706 759.50108279915)
(0.0165376536481228 -0.0295783741421147 759.5355302151)
(0.00840125829422317 -0.0154982287738326 759.554058493766)
(-0.0170106822310575 -0.028585020999797 793.996327207724)
(-0.0550215669540925 -0.0944118727988358 794.134152460745)
(-0.0375827199087658 -0.0642060572414417 794.258156079937)
(-0.043618838091439 5.34687620150994e-05 794.08279932505)
(-0.0924730648838659 5.34626574176648e-05 794.178662002594)
(-0.0662846073803065 5.43535693612066e-05 794.264406378833)
(-0.0170092352226678 0.0286912404140987 793.996333245359)
(-0.0550205310013485 0.0945206187133502 794.134158685329)
(-0.0375825625400264 0.0643165650249477 794.258162958404)
(0.0210938795706714 0.0374122945553474 794.082760712955)
(0.045514356761112 0.0797085399887933 794.178617893399)
(0.0324163645040985 0.0570307731847565 794.264359014333)
(0.0325994407280226 5.43936548972531e-05 793.996295210559)
(0.108601704537135 5.52986944700971e-05 794.1341198818)
(0.0737169537664008 5.5423232740344e-05 794.258119120428)
(0.0210920251096602 -0.0373020626004375 794.082751993107)
(0.0455114355528861 -0.0795964757946269 794.178608559375)
(0.0324142531505072 -0.0569183357428328 794.264349554828)
(0.0619654966430188 0.108209653320725 844.271440314198)
(0.0870684101183513 0.151697586820108 843.973523136602)
(0.0413777169329633 0.0725703670873682 843.65035121957)
(0.0508690240667306 5.2269267888189e-05 844.101368238524)
(0.0885172556282141 5.25902400346977e-05 843.864631576715)
(0.0446692991854856 5.37205249982413e-05 843.644527776809)
(0.0619673413483024 -0.108104632025401 844.271445286873)
(0.0870699475448084 -0.151590632693463 843.973528199061)
(0.0413790709198316 -0.0724609675091466 843.650355969329)
(-0.0261460916918102 -0.0444137141525112 844.101329412984)
(-0.0449784188657575 -0.0770298864863315 843.864599983374)
(-0.0230576902446499 -0.0390517187458496 843.644498252703)
(-0.125358372031956 5.41484664404119e-05 844.271412951615)
(-0.175578926365411 5.4848410259985e-05 843.973495470685)
(-0.0842136201624326 5.5910501381474e-05 843.650326649935)
(-0.0261477883795823 0.044521285136868 844.101321979248)
(-0.0449810405771721 0.0771396912624625 843.864593985433)
(-0.0230589940429271 0.0391614932042273 843.644492621606)
(-0.676468462274941 -1.17171459504248 673.597184855257)
(-0.304793720165398 -0.527954547936858 673.172081771289)
(-0.220552603293256 -0.382043774093414 672.499683834748)
(-1.35289546320451 -1.57530469988806e-06 673.597216459587)
(-0.609562729474279 -1.50861450546126e-06 673.172133129621)
(-0.441124400536454 -1.38627104235407e-06 672.499705772856)
(-0.676468569912715 1.171711693332 673.597185370709)
(-0.304793756217117 0.527951658661493 673.172082060562)
(-0.220552631345602 0.382041042572903 672.499683969193)
(0.676477717650108 1.17165774507879 673.597215683112)
(0.304811086213997 0.527913454044992 673.172132463734)
(0.220591355085369 0.38204106006673 672.499705044487)
(1.35299581312832 -1.56853852894259e-06 673.597180786355)
(0.609646343006576 -1.50155919846006e-06 673.172078909244)
(0.441163281567951 -1.40932274556479e-06 672.499682737817)
(0.676477526908542 -1.17166061233687 673.597215415073)
(0.304810986503414 -0.527916348872702 673.172132283518)
(0.220591331150886 -0.382043828963171 672.499704923302)
(-19.9451613401033 -34.5461064771086 14.439276984902)
(-8.60766548449649 -14.9088290676285 25.374786063453)
(-17.1870301956373 -29.7688013444889 81.0855151515703)
(-31.9700885385063 -55.3744864968145 115.550852845436)
(-35.8201814824951 -62.0428621902626 145.843399022866)
(-33.8738423613306 -58.6713635029401 144.019404394514)
(4.10556449292265 7.11088690929804 152.074019618231)
(121.955900322262 211.233692039187 105.175914376897)
(149.969358553253 259.754607175203 132.844327953314)
(103.692028284854 179.599930742819 108.928218542576)
(54.5478367920277 94.4796652967943 59.9392525687888)
(11.9835252571237 20.7560805737312 15.5153512745714)
(0.708146308394794 1.22654545750118 1.13140708276878)
(0.00739584937588203 0.0128099871670748 0.014207699823986)
(8.23213125181424e-06 1.42584730610279e-05 2.08412554926378e-05)
(-24.5970216567277 -42.6031507375026 51.2543778466059)
(1.67371194040951 2.89912218657277 332.080461404084)
(-6.41972839868568 -11.1187067573069 424.244641142768)
(-8.38423836880865 -14.5217434324984 400.452584423594)
(-12.0367953594792 -20.8486612135853 387.798270949199)
(-7.24543058956813 -12.5494569563848 388.252061614367)
(10.3267937649098 17.8863986674006 377.22984671343)
(82.6659180929556 143.181326744324 238.611539136634)
(132.110137134886 228.821380140397 177.704129987848)
(85.3122977035497 147.76523536992 149.716639819319)
(43.8380243107525 75.9297343511423 81.396996665963)
(12.4628061489059 21.5862374455911 30.937805513684)
(1.17040705905488 2.0272051977876 3.5149233790799)
(0.0187756547882618 0.0325203940293724 0.0652310108354817)
(3.17911661345924e-05 5.50639285715031e-05 0.000136637468457997)
(43.2559708254862 74.921836377263 199.030697737212)
(173.525586887117 300.555665325291 1077.91345102117)
(18.5925110599373 32.2041671172076 1091.48291175983)
(-75.2005003649203 -130.250553522507 865.037843821244)
(-52.6622542284266 -91.2135118795828 754.535480839061)
(-23.7133245266006 -41.0713284975381 705.429315214688)
(5.35858871726464 9.28115779401125 730.976783572494)
(45.9862462414502 79.6502377497798 644.075704543952)
(123.124513159029 213.257625476449 359.635925208401)
(105.478348710933 182.693740256586 236.519355098469)
(51.2157466397099 88.7082120555402 131.16151159375)
(15.6040638012867 27.0270390338133 55.4756962975004)
(1.68331320839195 2.91558444504018 7.40761552350328)
(0.0318698081642212 0.0552001298810962 0.161938312785011)
(6.63729250180431e-05 0.000114961288543673 0.00041435064654469)
(332.65242840167 576.170990790615 878.806020552539)
(498.002706797269 862.566363914829 1570.66909835706)
(171.336622029125 296.764372492748 1631.64406393943)
(-55.7114243902971 -96.4918692644775 1434.07720525793)
(-76.5138753671203 -132.526031413403 1190.73646691445)
(-20.125412839321 -34.8595254784496 1034.28445067735)
(32.5728699559601 56.4166772690272 1093.74394649945)
(32.3715680701717 56.068746724593 1087.95342946407)
(52.2223643795859 90.4516341344294 644.186408374334)
(86.1276335472831 149.177198224214 374.214491045363)
(47.0911167118478 81.5640825525529 205.426957914496)
(17.1626008239092 29.726473686497 85.3688130301811)
(2.07820218696611 3.59955148228589 12.8531856212049)
(0.0437318048819372 0.075745705364735 0.309593551659416)
(0.000101602789676608 0.000175981194427191 0.000888640961177998)
(-31.1278851376999 3.05568359298874e-06 18.2660661108598)
(8.76013831299058 5.1117997887669e-06 101.320938900602)
(-0.396672963846355 2.20983988868667e-06 224.232425108246)
(-72.6276354973049 -2.57760503044256e-07 206.159906355025)
(-71.9278682111436 -1.65488614596425e-06 175.09665652451)
(-58.1003058708193 -7.8503176214554e-06 153.418634204558)
(14.5858079537926 -1.3361950764064e-05 154.751841913299)
(207.576560897931 -1.12572132165635e-05 103.416129510355)
(285.819632285441 -4.03420116193932e-06 125.717189053952)
(204.714289249062 -1.33461757059624e-06 109.983710000279)
(102.05414283521 -7.5451291095764e-07 57.1390498606026)
(18.6792985054806 -6.44294433106762e-08 12.0072208723034)
(0.896382649638399 -4.64413876823861e-09 0.65714323901193)
(0.00845004588792339 -1.27388542032552e-10 0.00736714001173446)
(1.05219601933935e-05 -3.92498508847473e-13 1.32463850154587e-05)
(8.18122740940137 6.69407695928438e-06 51.057839913456)
(109.592505664096 4.04094058834242e-06 357.370383660821)
(54.2326854737634 5.72889922522679e-06 473.154861649496)
(-44.6163755971937 -7.7603345595792e-07 471.576986652958)
(-33.8222210436839 -2.13943269993482e-05 405.286000264684)
(-19.01118140623 -2.95239479048029e-05 367.772746490723)
(-17.3342394166575 -2.77492331820188e-05 314.788723674879)
(138.862160761733 -2.9157176081532e-05 194.671240646965)
(252.817080671769 -1.54027782130962e-05 153.91955484702)
(169.234569459394 -3.54389025470733e-06 151.521357840222)
(90.1098051155339 -1.87070897754277e-07 84.211777443946)
(24.3219516099274 1.22978213198938e-07 28.3447982406304)
(1.88266723794739 6.74649197605257e-09 2.39136784375349)
(0.0243244746566372 -1.41009865799761e-10 0.0342189325008899)
(3.56169633133988e-05 -1.02186856754247e-12 6.49544653758704e-05)
(170.887214717648 3.42436496699641e-06 255.920007260704)
(209.078682822647 1.77124557365603e-05 958.524889611247)
(-19.9945771650183 1.0355774780449e-05 865.226785771336)
(-116.380720215329 3.27564030593684e-05 789.476784061957)
(-92.8012332076983 1.39250121924217e-05 695.071650556303)
(-44.4657950258047 -3.40680137401303e-05 622.165981504604)
(-14.9069289886265 -3.46634823701131e-05 633.986671317528)
(76.6946511575402 -4.49537271310988e-05 583.681215213929)
(242.275865523193 -3.59698155028208e-05 314.113387415286)
(209.424836213138 -6.12709785564519e-06 231.980161345921)
(105.703100838978 -6.08494050401302e-07 133.119288040658)
(33.3126796409803 2.13744277007839e-09 53.4754403717156)
(3.37468708289914 2.68879840690828e-08 5.84734089952045)
(0.0562995116447265 3.61899354895601e-10 0.103556460350439)
(0.000103483572055332 -6.06336424738054e-13 0.000231110175615069)
(540.398244553006 3.03360460349427e-05 867.63822467973)
(728.162484973325 3.73377788210625e-05 1494.20452435421)
(137.028362532078 -8.02987350971993e-06 1393.29901220169)
(-208.603721348194 0.000101294789829473 1210.93215011457)
(-162.988153048042 6.01425884026497e-05 1040.74899507997)
(-52.8216618853745 4.47771038677192e-05 955.886415097778)
(47.2501409681838 -7.12667408956152e-06 1031.81552239706)
(121.578373704108 -1.91527624604976e-05 1052.52008366726)
(153.813944306154 -3.46827713908352e-05 638.953436881005)
(182.162960629481 -1.34359986588112e-05 370.061290559626)
(102.381561631331 -4.02364052012537e-06 205.70003021124)
(39.4371579288376 -5.57368537534468e-07 84.3566794024975)
(4.84639611321114 3.53811218564666e-08 11.3878569692876)
(0.0990802825044756 1.62399893652797e-09 0.242307636543924)
(0.000218697038709702 3.25264432164013e-12 0.000638614797685846)
(-19.9451717848844 34.5461197494597 14.4392933069541)
(-8.60766251741198 14.9088303918338 25.3747517066364)
(-17.1870296213873 29.7688053642616 81.0854825286108)
(-31.970109743986 55.374474094178 115.550862683943)
(-35.8201994024913 62.0428553050904 145.843365518051)
(-33.8738432775268 58.6713566526004 144.019340198959)
(4.10555471855495 -7.11087867775347 152.073956951651)
(121.955877939696 -211.233661713039 105.175882039799)
(149.969347928948 -259.754589267416 132.844301861267)
(103.6920235792 -179.599921049918 108.928204053993)
(54.5478367485649 -94.4796636033201 59.9392467776605)
(11.9835256002297 -20.7560809609821 15.5153512501192)
(0.708146316674566 -1.2265454715404 1.13140710337101)
(0.00739584870003317 -0.0128099860134477 0.0142076985875932)
(8.23213118336016e-06 -1.42584712123203e-05 2.0841251495221e-05)
(-24.5970132127619 42.603143232551 51.2543505952802)
(1.67370903150294 -2.89910352116009 332.080340701819)
(-6.41965976472888 11.1186369448164 424.244588081346)
(-8.38422707431435 14.5217462964602 400.452498805099)
(-12.0368093962611 20.848663306291 387.798150413076)
(-7.24541735309578 12.5494414538678 388.251912174514)
(10.3267956902927 -17.8864072226587 377.229737628191)
(82.6659184883515 -143.181346739551 238.611470315644)
(132.110132390043 -228.821381617568 177.704098116955)
(85.3122935567121 -147.765230940088 149.716620607786)
(43.8380240806057 -75.9297330934801 81.3969908470057)
(12.462806991554 -21.5862381175027 30.9378055510722)
(1.17040715217805 -2.02720533914989 3.51492359258199)
(0.0187756560691879 -0.0325203961017512 0.0652310132360961)
(3.17911662273039e-05 -5.50639263453027e-05 0.000136637462062616)
(43.255948587985 -74.921783985856 199.03069324241)
(173.525602077584 -300.555643107557 1077.91333335968)
(18.5925427024792 -32.2041326158417 1091.48292922498)
(-75.2004846349692 130.250575882628 865.037684129083)
(-52.6622499463493 91.2135281044466 754.535259420537)
(-23.7132899657081 41.0713935619857 705.42906627243)
(5.35855317737668 -9.28110736038254 730.976622669197)
(45.9862308557398 -79.6502475761585 644.075552357873)
(123.12451219273 -213.25765142242 359.635838148906)
(105.478344752154 -182.693742774976 236.519333363673)
(51.215744268534 -88.7082114729437 131.161504027004)
(15.6040636295122 -27.0270384984453 55.4756952052004)
(1.68331327535271 -2.91558455226104 7.40761583233196)
(0.0318698110040284 -0.0552001347941973 0.161938324203344)
(6.63729320826876e-05 -0.000114961298903193 0.000414350664594638)
(332.652470912178 -576.171055354734 878.806099649437)
(498.002691170592 -862.566299202982 1570.66903625248)
(171.336643237167 -296.764347060486 1631.64404569602)
(-55.7113315249297 96.4919961342745 1434.07709955421)
(-76.5139048636963 132.526082308487 1190.73621710765)
(-20.1255035640665 34.859571086467 1034.28423939555)
(32.5727963349209 -56.4166487458143 1093.74377219643)
(32.3715273715727 -56.0687429619669 1087.95326462267)
(52.2223793929712 -90.4516919157966 644.186289109451)
(86.127640002712 -149.177226967581 374.214465095431)
(47.0911157099985 -81.5640877396351 205.426948737724)
(17.1626000644898 -29.7264735058046 85.368810031696)
(2.07820217000733 -3.59955147736817 12.853185712886)
(0.043731807007025 -0.0757457093162325 0.309593570596655)
(0.000101602800179193 -0.000175981211412188 0.000888641033083914)
(15.5638936508413 26.9575999428161 18.2661021467875)
(-4.38016690096839 -7.58644291115571 101.321139996388)
(0.198228302783004 0.343354059554465 224.232893391409)
(36.3137977608813 62.8973144847087 206.160172800227)
(35.9638202461143 62.2911721423515 175.097103111851)
(29.0501697983899 50.3162512563304 153.419375228192)
(-7.29275725973794 -12.631752542685 154.75227143054)
(-103.788111155873 -179.766604404151 103.416499187826)
(-142.90986414669 -247.527254417117 125.717361831956)
(-102.357202643375 -177.287907118733 109.983679907276)
(-51.0271172875628 -88.3815740776492 57.1389724867414)
(-9.33966247980404 -16.1767709149599 12.0072123457379)
(-0.448191671109028 -0.776291047396906 0.657142321018831)
(-0.00422500776353675 -0.00731793661652088 0.00736709182531678)
(-5.26091302712293e-06 -9.11217480960366e-06 1.32461444494339e-05)
(-4.090738385054 -7.08504402883793 51.0578360933668)
(-54.7964209231053 -94.9099352480595 357.371217038256)
(-27.1165354307781 -46.96705791964 473.156045219663)
(22.3083217442298 38.6390559893983 471.577962864382)
(16.911420292031 29.2909529112886 405.287237254161)
(9.50610568904839 16.4644527087911 367.773853170078)
(8.66762731951191 15.0121366366937 314.789180273726)
(-69.4306627931454 -120.258294074606 194.67184676353)
(-126.408522368525 -218.946421489241 153.919827028094)
(-84.6172908842212 -146.56153974827 151.521414691081)
(-45.0549507733993 -78.0374525425142 84.2117726278153)
(-12.1610064048487 -21.063466055535 28.3448345071711)
(-0.941337080476072 -1.63044319093335 2.39137469688004)
(-0.0121622811715307 -0.0210656995644326 0.034219005032714)
(-1.78085045123148e-05 -3.08452815032275e-05 6.49543086305582e-05)
(-85.4436525453647 -147.992472015057 255.919374659844)
(-104.540107152263 -181.068466592514 958.526501461566)
(9.99684826581219 17.3152913309752 865.228852412969)
(58.1901373869768 100.788935263112 789.478101329442)
(46.4006082056749 80.3684246812585 695.073602474293)
(22.2334718616293 38.50878165346 622.167628292965)
(7.45407042892278 12.910035333486 633.987471320803)
(-38.3466697701546 -66.4197018277701 583.682526055047)
(-121.137618466447 -209.817557010039 314.114138619244)
(-104.712376000967 -181.367327477431 231.980382808535)
(-52.8515236555921 -91.5415199307297 133.119427943006)
(-16.6563301417352 -28.8495941767883 53.4755193626974)
(-1.68734417491025 -2.92256404816147 5.84735490994826)
(-0.0281497870424988 -0.0487568489848767 0.103556708338446)
(-5.17418382220338e-05 -8.96195306068683e-05 0.000231110430322629)
(-270.198991885063 -467.997970389704 867.636575066812)
(-364.082632088004 -630.609080428925 1494.20580628743)
(-68.5151087325169 -118.671916091988 1393.30181559883)
(104.300468116654 180.655980414578 1210.93376213951)
(81.4934490332617 141.152042670832 1040.75217877337)
(26.410047158945 45.7444564468015 955.888664764674)
(-23.6251656725576 -40.9201437928237 1031.81697717173)
(-60.7894785537335 -105.29081723043 1052.52142305248)
(-76.9067791936537 -133.207199467006 638.954797853529)
(-91.0813183055198 -157.757796247192 370.061474523869)
(-51.1906868785752 -88.6649590639998 205.700121297027)
(-19.7185495077838 -34.1535306090514 84.3567427631316)
(-2.4231963678099 -4.19709638135888 11.3878702071182)
(-0.049540137762063 -0.0858059645008581 0.242307895355386)
(-0.000109348533448865 -0.000189397114251442 0.000638615209579784)
(39.8901369205263 -2.40766353748495e-06 14.4390699834407)
(17.2152756929807 3.23919579490237e-06 25.3751054992297)
(34.3740466815027 2.51336651743402e-06 81.0857878531621)
(63.9407680183827 -2.45618816370629e-05 115.550706119248)