/*--------------------------------*- C++ -*----------------------------------*\
  =========                 |
  \\      /  F ield         | OpenFOAM: The Open Source CFD Toolbox
   \\    /   O peration     | Website:  https://openfoam.org
    \\  /    A nd           | Version:  11
     \\/     M anipulation  |
\*---------------------------------------------------------------------------*/
FoamFile
{
    format      ascii;
    class       volScalarField;
    location    "0.0001000042";
    object      Ma;
}
// * * * * * * * * * * * * * * * * * * * * * * * * * * * * * * * * * * * * * //

dimensions      [0 0 0 0 0 0 0];

internalField   nonuniform List<scalar> 
900
(
0.799239752735213
0.798102650151484
0.798206717300952
0.799196645089397
0.798060446652912
0.798169158865265
0.799135358792527
0.798007195887963
0.798123717142141
0.799240131969917
0.79810423507533
0.798206834212974
0.799197630115345
0.79806054779656
0.798168415936832
0.799135692314902
0.798008460471497
0.798124646906216
0.799239748373878
0.798102645435943
0.798206708157208
0.799196642065779
0.798060442981491
0.798169152220466
0.799135357137757
0.798007194274697
0.798123714413642
0.799240206077217
0.798104340066809
0.79820698213522
0.799197674745953
0.798060623962583
0.798168524768555
0.79913571283421
0.798008493207513
0.798124696849986
0.799239820703031
0.798102741329332
0.798206861598097
0.79919669014142
0.79806051124272
0.798169260616186
0.79913538022803
0.798007226570985
0.798123760801515
0.799240210962766
0.798104346382411
0.798206991681062
0.799197677759574
0.798060628647312
0.798168532007264
0.799135714362892
0.798008495102274
0.798124700182618
0.801730373515288
0.811784121026093
0.826278897755366
0.801703032039019
0.811772378278989
0.826276016983731
0.801665045276756
0.811751524174561
0.826269379468939
0.801726520606679
0.811781941978488
0.82627781197158
0.801699421697265
0.811768727689527
0.826275830248707
0.801664916927319
0.811750266448
0.826268324258999
0.801730346661351
0.811784070284099
0.826278772377783
0.80170301401175
0.811772333115317
0.826275913704658
0.801665039501708
0.811751495207581
0.826269322203454
0.801726854681249
0.811782473741174
0.826278693053682
0.801699636762803
0.811769165232387
0.826276675641279
0.801665006833145
0.811750522393745
0.826268615162547
0.801730797201426
0.811785158094449
0.826280177526426
0.801703337497641
0.811773255387682
0.826277120284226
0.801665150708015
0.811752029787049
0.826269896742577
0.801726875500934
0.811782486376801
0.826278770041596
0.801699647070001
0.811769179404751
0.826276748820761
0.80166501081497
0.811750535449973
0.82626864862863
0.842581388685085
0.842582656812372
0.842579239391666
0.84258363890998
0.842583451125249
0.842578656523544
0.84258134195315
0.842582618261413
0.842579188542752
0.842585139451946
0.842584134775281
0.842578496901908
0.842581204855193
0.842582536728098
0.842579502782354
0.842585297426048
0.842584226424333
0.842578489646787
0.860047326105028
0.860051652234574
0.860052666521268
0.860048962538218
0.860051659457167
0.860052713044786
0.86004732736073
0.860051647210862
0.860052640031465
0.860048784516415
0.860051521754861
0.860052702017193
0.860047069543886
0.860051481882087
0.860052836297637
0.860048772578673
0.860051509206626
0.860052702609564
0.878932340165869
0.87893580945259
0.878930377114039
0.878934540677603
0.878933407927986
0.878929682475393
0.878932338144665
0.878935811142044
0.878930372064228
0.878934838856245
0.878933520810316
0.878929474069143
0.878932018756541
0.878935577906524
0.878930401747601
0.87893489883256
0.878933548982603
0.878929467473583
0.899761824978119
0.899762768602453
0.899769009835024
0.899758705336574
0.899762961741791
0.899768056278915
0.89976182337502
0.899762764960008
0.899769024970742
0.899758582776208
0.899762793841003
0.899767836911408
0.899761650748377
0.899762692635135
0.899768932548333
0.899758580052311
0.899762784084594
0.899767820025081
0.922699713217339
0.922700871799117
0.922698222334516
0.92270352196698
0.922699965654783
0.922696032621884
0.922699699658904
0.922700865665823
0.922698240379544
0.922703762892367
0.922700036966497
0.922696010570862
0.922699672811069
0.922700856855137
0.922698130301638
0.922703819511665
0.922700057010186
0.922696012085875
0.951217447419711
0.951234548798696
0.951238350433126
0.951207227554045
0.951224062041718
0.951237170064915
0.951217446226921
0.951234540874051
0.951238364964679
0.951207216249354
0.951223928482955
0.951237011266787
0.951217376479758
0.951234532987403
0.951238261229228
0.951207212765173
0.951223910365803
0.951236993368319
0.982985291662488
0.983025783693278
0.983063322121577
0.983009034491069
0.983040597479121
0.983067317786528
0.982985268853776
0.983025766986071
0.98306331670089
0.98300889612207
0.983040416698549
0.983067241954335
0.982985370353723
0.983025842167621
0.983063319165172
0.983008879412177
0.983040396963701
0.983067238907969
1.02554344516415
1.02548163415805
1.02540763726538
1.02550321555106
1.02545347260466
1.02540481473452
1.02554344071906
1.02548162854782
1.02540764419097
1.02550316183167
1.02545346150307
1.02540477963436
1.02554343359245
1.02548163598128
1.02540758410487
1.02550316034102
1.02545346523065
1.02540477986859
0.800324226891116
0.800282087938295
0.800207429723765
0.800323307418603
0.800281387453428
0.800207569678693
0.800324224005825
0.800282084398388
0.80020742696993
0.800323327787479
0.800281415096097
0.800207595772015
0.800324258652268
0.800282124881796
0.800207457689243
0.800323329421247
0.8002814174871
0.800207598225131
0.0681814064648704
0.0267196060280174
0.144825179413815
0.181095723901964
0.217837260153872
0.239860094834976
0.266975804852788
0.339963267801982
0.394145066121508
0.388120225523181
0.350509924042118
0.293507375694228
0.528028494842932
0.721691037922282
0.591246480545616
0.12663228250913
0.514070916518183
0.582420875451179
0.50114100588415
0.455263341218811
0.455414870347174
0.508838046457211
0.610850535354163
0.687318954968231
0.705075315246464
0.683756896577993
0.603164990302432
0.420685297920054
0.589957206365735
0.619523327567986
0.559653149451727
1.77140722319746
1.38135809825769
1.06132778043391
0.873644632933443
0.829761930762994
0.907662289678108
1.01457392833436
1.08747773499596
1.0852129745178
1.06656863470562
1.13460890283873
0.909575950629306
0.618664576413595
0.807394204690867
2.22618651430687
3.35495858005249
2.43377680985837
1.79007262178173
1.31899282698802
1.17686716092885
1.28450683867672
1.40158433023802
1.48153364387694
1.47136804063003
1.47437352795523
1.59667358601804
1.5001125333843
0.891036054045145
0.956805635778761
0.0540529756868025
0.19471521760183
0.298941199917899
0.31404462925731
0.281155521306357
0.268531419135259
0.307431630517481
0.352524461414473
0.381168445263272
0.366648374147387
0.320433964852412
0.254625057657664
0.554233743221838
0.73046627198772
0.614149127275515
0.170217811241063
0.636090159032646
0.711726787628794
0.643663379261069
0.534947337122159
0.519619526678222
0.57276532248153
0.632753858831642
0.660030134773987
0.674712264393569
0.690854855376305
0.634869659251126
0.44311442069724
0.578395150035425
0.622741129352905
0.776881925480463
1.5012457123456
1.29497032272728
1.09624267062441
0.904482960635805
0.88107445149911
0.944868746418127
1.00217688335954
1.03047847357638
1.07136391970896
1.11368572188805
1.18558912116946
0.92547837621604
0.638358856241142
0.785689200386217
1.73611854941098
2.74929861129679
2.05849499808654
1.71430207576905
1.29675476689958
1.18997681676851
1.27231194548789
1.36840996546722
1.41657794353327
1.45432509516995
1.51446603604154
1.62478735353531
1.47783548426173
0.854686767052683
0.920835614986119
0.0681813413431257
0.0267195923428529
0.144824923801324
0.181095568682668
0.217837151914758
0.239860009065366
0.266975751256391
0.3399631490928
0.394144920419876
0.388120113055659
0.350509774847875
0.293507242426918
0.528028451149809
0.721691016295919
0.591246475114752
0.126632244955917
0.514070500212508
0.582420639078459
0.501140729546255
0.455263094290615
0.455414728740531
0.508837907270104
0.61085034314142
0.687318615956183
0.705075025514379
0.683756714950802
0.603164918618
0.420685289996621
0.589957179068912
0.619523319488768
0.559652685992007
1.77140651574515
1.38135773467435
1.06132752999019
0.873644326029331
0.829761764946068
0.907662074839975
1.01457361159626
1.08747720679095
1.08521242367197
1.06656838017488
1.13460878009701
0.909575773442589
0.618664509217393
0.807394197661978
2.22618633178894
3.3549573247735
2.43377616684659
1.7900724013746
1.31899259656114
1.17686699481079
1.28450666786987
1.40158401953955
1.48153314108603
1.47136748184829
1.47437315515243
1.59667337345245
1.50011233346591
0.891035923526527
0.956805616872378
0.0540526534160686
0.194716654145875
0.29894204154702
0.314045958835094
0.281156704025052
0.26853181193873
0.307431412570452
0.352524671572611
0.381169662522522
0.366649374495459
0.320434983812179
0.254626013093725
0.554233985634622
0.730466455888769
0.614149324823166
0.170219469711004
0.636092419587433
0.711729012982435
0.643665528300367
0.534949321250431
0.519620158603558
0.572765642909499
0.632754814778151
0.660032038648813
0.674714028338666
0.690856290284703
0.634870640149314
0.443114970563771
0.578395316664856
0.622741096243403
0.776885325102202
1.50124878821352
1.29497333317574
1.09624488346992
0.904485799001072
0.881075516541237
0.944869879505089
1.00217971354179
1.03048136448222
1.0713669749847
1.11368786127821
1.18559007331315
0.925479782526155
0.638359704897424
0.785689232573624
1.73612010786755
2.74930274897155
2.0584977738355
1.71430446005807
1.29675798974021
1.18997833864521
1.27231392601189
1.36841380706319
1.41658139142018
1.45432886164031
1.51446885824267
1.62478878237908
1.4778370283668
0.854687687036289
0.920835649630039
0.0681817748327895
0.0267196806517476
0.144826764270701
0.181096791648733
0.217838079252578
0.239860755836373
0.26697621327135
0.339964291853188
0.394146349105225
0.38812129910232
0.350511369974493
0.293508682363393
0.528029014950535
0.721691293583181
0.591246542213944
0.126632492225146
0.514073349312575
0.582422374414298
0.501142824065937
0.455264983784578
0.455415917480881
0.508839210792807
0.610852219981627
0.687321920790686
0.705077931527572
0.683758615551701
0.603165739039763
0.420685356966032
0.589957474662906
0.619523449121663
0.559655751575996
1.77141153836275
1.38136048431404
1.06132948120082
0.873646621705099
0.829763165954499
0.90766403408158
1.01457661884747
1.08748219900435
1.08521778248775
1.0665709495708
1.13461014604158
0.909577748074439
0.618665206711393
0.807394297062158
2.22618765557977
3.35496627897732
2.4337808260272
1.79007412945512
1.31899436909699
1.17686837968329
1.28450813526098
1.40158675871504
1.48153766354907
1.47137271733911
1.47437678320835
1.59667554410142
1.50011446416379
0.891037360305804
0.956805827901353
0.0540525943472053
0.194716875486471
0.298942148962038
0.314046154571497
0.281156894127088
0.268531883866037
0.307431385173882
0.352524674413087
0.381169773962384
0.366649475883898
0.320435079053698
0.254626093538788
0.554233999201632
0.730466467346023
0.614149339706902
0.170219724530426
0.636092781528635
0.711729364073002
0.643665856834353
0.534949637145158
0.519620262551236
0.572765689293597
0.632754915995186
0.660032239599321
0.674714215785322
0.690856435276042
0.63487072838906
0.443115017160207
0.578395331584625
0.622741090564485
0.776885844288107
1.50124930493969
1.29497385124159
1.09624522731239
0.904486248397026
0.881075682485387
0.944870028337402
1.00218006105959
1.03048170248581
1.07136731796418
1.11368809123718
1.18559017343234
0.925479922975082
0.638359784684549
0.785689234166337
1.7361203042646
2.74930347989685
2.0584982699671
1.71430487117609
1.29675849989841
1.18997856558123
1.27231419837402
1.36841431626856
1.41658182906638
1.45432932160444
1.51446918465637
1.62478894630539
1.47783719705922
0.854687788496854
0.920835653394042
1.72577109341189
2.73335755868373
3.29835849814342
2.33969885939553
1.78167331889525
1.4673030258949
1.53821039330235
1.70297243202208
1.82193716938254
1.78271380061599
1.80846009332669
1.89658339693442
1.85546662535297
1.31760913759084
1.14820928745144
1.55288656194892
2.37638913736628
3.21524038029919
2.81053253079856
2.08144321817392
1.69927531898438
1.77858250859312
1.91954750097155
2.01586584382097
1.98490380582794
1.97413752674797
2.02464618142473
2.00228870964761
1.53541270459236
1.17630962293441
1.45484362893357
2.15589184330554
3.07724218032446
3.01616790081731
2.27776379564848
1.86162891708385
1.93421400461192
2.07455921066146
2.139673443852
2.10782483552849
2.06316283785389
2.08819340889205
2.07499466338651
1.60862292837225
1.26033185398264
1.59941907765469
2.31667088931686
2.89912795699014
2.20256979938079
1.75206161228526
1.44070074621054
1.52221993380338
1.67888214513996
1.77089611956205
1.77407327405263
1.81639731345549
1.90099477518121
1.84848256727909
1.23094150956926
1.1176884930026
1.49084500271427
2.17755551388848
3.00501416940906
2.65508956204435
2.05680642826212
1.6803994684066
1.79110161882385
1.91111726004784
2.00557333790513
1.96726977396412
1.97271457152462
2.02363575997485
2.00481845062599
1.47455515458839
1.17881342867206
1.44759955452757
2.10725781957199
3.03819437877238
2.96478882159361
2.26638520588069
1.8589793171267
1.93762162289264
2.07683174622006
2.13529430267201
2.10141374700031
2.06235101191563
2.09107234127279
2.07282172933812
1.59832491608907
1.26574144345713
1.72577118678555
2.73335791719341
3.29835839960645
2.33969861079292
1.78167311966005
1.46730277819258
1.53821011922967
1.70297212571796
1.82193676533346
1.78271335070982
1.80845972987024
1.89658322034059
1.85546643397504
1.31760903944003
1.14820929490488
1.5528866474563
2.37638932409229
3.21524048128053
2.81053222290074
2.08144317474876
1.69927503866699
1.77858222499152
1.91954722373087
2.01586559956309
1.98490349294285
1.97413733829846
2.0246460861049
2.00228853199349
1.53541267293697
1.176309673062
1.45484365413171
2.15589188451727
3.07724219957677
3.01616815851602
2.27776362809536
1.86162873246904
1.93421386438043
2.07455906852309
2.13967332394491
2.10782473178782
2.06316283269006
2.08819338570111
2.07499464078987
1.60862293153063
1.26033186274095
1.59941890521629
2.31667032153718
2.89912946714044
2.20257209948367
1.75206421807674
1.44070318146675
1.52222325965683
1.67888555357976
1.77090042214537
1.77407747438188
1.8164001501203
1.90099604889198
1.84848416683036
1.23094220704588
1.11768845582833
1.49084471473178
2.17755514063661
3.00501446880931
2.65509174621498
2.05680779847135
1.68040223272579
1.79110397592488
1.91112048330072
2.00557542304669
1.96727238707379
1.97271601963696
2.02363657265161
2.00481907813125
1.47455528676689
1.1788132470738
1.4475994101025
2.1072575481667
3.03819390860243
2.96478904960358
2.26638671148895
1.85898073270143
1.93762239876163
2.07683286331644
2.13529488443382
2.10141452497407
2.06235113522205
2.09107260013877
2.07282148160761
1.59832519933683
1.26574153617722
1.72577054535237
2.73335548717225
3.29835923229836
2.33970050117939
1.78167461842263
1.46730478922256
1.53821238201569
1.70297459326678
1.82194026083149
1.78271731349388
1.80846318735678
1.89658490315208
1.85546842978162
1.31761006030065
1.14820919900065
1.55288605238281
2.37638805444548
3.2152398326612
2.81053448193802
2.08144355373327
1.69927720723984
1.7785844790639
1.91954959251938
2.01586774731061
1.98490621837398
1.97413909208157
2.02464695669037
2.00229037060416
1.53541301200627
1.17630908413081
1.45484347208721
2.15589160247584
3.07724205364637
3.01616627249953
2.27776490495631
1.86163009226849
1.93421495539733
2.07456038201341
2.13967436926948
2.10782561569904
2.06316291186117
2.08819360073275
2.07499485481763
1.60862289839235
1.26033176131484
1.59941887066273
2.31667022175527
2.89912976271884
2.20257249228081
1.75206463815019
1.44070353585174
1.52222372604975
1.67888601916291
1.77090100013068
1.77407803382038
1.81640049640844
1.90099620604687
1.8484843428916
1.23094229286198
1.11768845334202
1.4908446689477
2.17755507536189
3.00501453639207
2.65509212203952
2.056808011146
1.68040265044018
1.79110431642863
1.91112092201315
2.00557570400447
1.96727273841468
1.97271620020774
2.02363667362132
2.00481915637858
1.4745553073095
1.17881322981782
1.44759938906739
2.10725750065647
3.03819383415345
2.96478909256538
2.26638694304393
1.85898095554041
1.93762251553743
2.07683300983102
2.13529496039681
2.10141462755712
2.06235114618997
2.0910726259613
2.07282146054041
1.59832522974025
1.26574154536303
)
;

boundaryField
{
    inlet
    {
        type            calculated;
        value           nonuniform List<scalar> 
24
(
0.800327598812923
0.800326646645767
0.800327595951167
0.800326666902772
0.800327630319595
0.800326668528577
0.800327598812923
0.80028458882105
0.800210545670987
0.800326646645767
0.800283914309324
0.800210669769356
0.800327595951167
0.800284585327239
0.800210542964776
0.800326666902772
0.800283941742216
0.800210695275862
0.800327630319595
0.800284625304052
0.800210573141394
0.800326668528577
0.80028394411814
0.80021069767111
)
;
    }
    outlet
    {
        type            calculated;
        value           nonuniform List<scalar> 
156
(
0.000968265326347612
0.00183786651323487
0.0884894442256509
0.0641307586744309
0.0821535934786833
0.09471781781735
0.117613366432148
0.15280746621858
0.171216083597331
0.170120727236724
0.177831685244011
0.182687045694655
0.514611593206581
0.689504611136723
0.534281771316769
0.00112376119264483
0.10576690261417
0.22545652762641
0.145759048282056
0.118296415014822
0.119997567968898
0.148165736234828
0.163923059866881
0.15666533878668
0.133217313875626
0.125731978940907
0.153211220617973
0.544911004019254
0.6977558408217
0.557815812605156
0.00096826906566544
0.00183782625880094
0.088489187538569
0.0641306248486354
0.0821535338851087
0.0947177856820789
0.117613334225578
0.152807378245326
0.17121597224834
0.170120635278735
0.177831560093714
0.182686957632162
0.5146115616099
0.689504597898805
0.534281774012665
0.00112379256156015
0.105768638692036
0.22545835081873
0.145760336140963
0.11829698279518
0.119997510214692
0.148165650838817
0.163923476902362
0.156666020505595
0.133217893771374
0.125732546138768
0.153211807150467
0.544911169487356
0.697755972843827
0.557815933054936
0.000968244169155963
0.00183810047377886
0.0884910245096377
0.0641316402116301
0.0821539987320223
0.0947180432845602
0.117613619802197
0.152808205435914
0.171217038719868
0.170121575420932
0.177832884376317
0.182687919970871
0.514612000945668
0.689504778744002
0.534281762756143
0.00112379701968788
0.105768919405356
0.225458634855546
0.145760537439118
0.118297078914746
0.119997514626691
0.148165639812838
0.163923515066749
0.15666608511822
0.133217949993322
0.125732594381068
0.153211854485542
0.544911176482915
0.69775598005216
0.557815940745055
0.470223302026184
0.551313408055046
0.737658595081752
0.929321511356807
1.13514510458382
1.17208259545079
1.26024117467888
0.4845341662471
0.557334397451293
0.724855009543583
0.8990906038058
1.10707098214956
1.17850306060714
1.26696384605186
0.470223287240786
0.551313399502018
0.737658587003791
0.929321488559637
1.13514510526055
1.1720826415079
1.26024118216079
0.484534405268949
0.557334393555678
0.724855074879701
0.899090658858936
1.10707095070015
1.17850289326966
1.26696394693626
0.470223439750722
0.551313537389582
0.737658708691136
0.929321750330349
1.13514509156732
1.17208210297824
1.26024109676796
0.484534425234152
0.557334390653522
0.724855079233756
0.899090664289118
1.10707094847032
1.17850287731632
1.26696395688245
0.0343943629175363
0.0214322614319734
0.0385228262958535
0.325320582391399
0.0267176522775494
0.0175563819010442
0.109166108750037
0.225024552196907
0.0343943048995623
0.0214322680599793
0.0385226945886999
0.325320529799532
0.026717346101306
0.0175566833372583
0.109167114008995
0.225025170655862
0.0343946907633821
0.0214322241555517
0.0385235458146723
0.32532090798662
0.0267172951152725
0.0175567322317655
0.109167269567784
0.225025267606127
)
;
    }
    sides
    {
        type            calculated;
        value           nonuniform List<scalar> 
84
(
0.799239752735213
0.798102650151484
0.798206717300952
0.799240131969917
0.79810423507533
0.798206834212974
0.799239748373878
0.798102645435943
0.798206708157208
0.799240206077217
0.798104340066809
0.79820698213522
0.799239820703031
0.798102741329332
0.798206861598097
0.799240210962766
0.798104346382411
0.798206991681062
0.801730373515288
0.811784121026093
0.826278897755366
0.801726520606679
0.811781941978488
0.82627781197158
0.801730346661351
0.811784070284099
0.826278772377783
0.801726854681249
0.811782473741174
0.826278693053682
0.801730797201426
0.811785158094449
0.826280177526426
0.801726875500934
0.811782486376801
0.826278770041596
0.842581388685085
0.84258363890998
0.84258134195315
0.842585139451946
0.842581204855193
0.842585297426048
0.860047326105028
0.860048962538218
0.86004732736073
0.860048784516415
0.860047069543886
0.860048772578673
0.878932340165869
0.878934540677603
0.878932338144665
0.878934838856245
0.878932018756541
0.87893489883256
0.899761824978119
0.899758705336574
0.89976182337502
0.899758582776208
0.899761650748377
0.899758580052311
0.922699713217339
0.92270352196698
0.922699699658904
0.922703762892367
0.922699672811069
0.922703819511665
0.951217447419711
0.951207227554045
0.951217446226921
0.951207216249354
0.951217376479758
0.951207212765173
0.982985291662488
0.983009034491069
0.982985268853776
0.98300889612207
0.982985370353723
0.983008879412177
1.02554344516415
1.02550321555106
1.02554344071906
1.02550316183167
1.02554343359245
1.02550316034102
)
;
    }
}


// ************************************************************************* //
