/*--------------------------------*- C++ -*----------------------------------*\
  =========                 |
  \\      /  F ield         | OpenFOAM: The Open Source CFD Toolbox
   \\    /   O peration     | Website:  https://openfoam.org
    \\  /    A nd           | Version:  11
     \\/     M anipulation  |
\*---------------------------------------------------------------------------*/
FoamFile
{
    format      ascii;
    class       volScalarField;
    location    "0.0001000042";
    object      p;
}
// * * * * * * * * * * * * * * * * * * * * * * * * * * * * * * * * * * * * * //

dimensions      [1 -1 -2 0 0 0 0];

internalField   nonuniform List<scalar> 
900
(
801078.59781512
802191.25329513
802126.329836379
801063.687301923
802183.442638469
802119.252423986
801064.361955288
802184.978525116
802117.182282028
801078.122906245
802185.281308092
802117.529093634
801063.143308887
802178.620754662
802112.679909532
801064.058395513
802182.705910886
802117.571469626
801078.600211828
802191.255625416
802126.334498757
801063.687979313
802183.444048612
802119.256299911
801064.363110632
802184.979604068
802117.184925607
801078.072068527
802185.20919992
802117.426835896
801063.123553212
802178.577570093
802112.613972396
801064.040682278
802182.681196445
802117.546217397
801078.553369649
802191.19553357
802126.247032393
801063.668250478
802183.41024376
802119.193136286
801064.344729427
802184.957280103
802117.142400752
801078.068971966
802185.205075255
802117.419897254
801063.12265976
802178.575251916
802112.609620655
801064.039504992
802182.679852934
802117.544513898
798858.100979897
789573.385574386
776375.60431668
798859.298786521
789577.813266078
776377.75022466
798856.790752889
789576.447078183
776379.719865285
798851.478132166
789570.059058429
776377.135756601
798852.31687787
789573.057489614
776379.472049636
798859.235505565
789577.135907381
776379.573726381
798858.114636243
789573.391762045
776375.677239307
798859.30902657
789577.818741113
776377.824831368
798856.791557309
789576.448450016
776379.739615941
798851.214595285
789569.725336433
776376.455411334
798852.179530686
789572.85715067
776379.238476399
798859.194057899
789576.948629612
776378.85603129
798857.837295842
789572.838878971
776374.729834466
798859.107254026
789577.439471127
776376.742020176
798856.750768369
789576.29383039
776379.460872785
798851.195537329
789569.715265266
776376.387546106
798852.172918484
789572.848893516
776379.204669298
798859.192921348
789576.938984482
776378.786196457
761827.897907512
761834.533699024
761835.853260529
761828.081412944
761834.006408926
761835.18648969
761827.9460961
761834.565325075
761835.878569098
761826.406953751
761832.832018289
761834.958738989
761827.645519296
761834.503776071
761835.766055832
761826.237672731
761832.67775983
761834.921050964
746530.605258625
746529.12836
746528.860871524
746529.599624917
746529.920867376
746529.39637775
746530.620530693
746529.136591219
746528.864878345
746529.229294166
746529.396705238
746529.244401448
746530.304580195
746528.997682386
746528.83070935
746529.197786876
746529.347407903
746529.237902571
730372.282063145
730379.576900033
730379.194487667
730371.109222517
730375.94135663
730377.965908118
730372.296423278
730379.577643316
730379.208945865
730370.240437531
730375.299203801
730377.70551707
730372.131417282
730379.563546521
730379.077044888
730370.134614839
730375.229859745
730377.682442093
712929.675022196
712924.136237181
712925.109754478
712932.185416538
712929.176159975
712926.484466991
712929.687204101
712924.140848724
712925.118275258
712931.753825651
712928.838791673
712926.410003274
712929.504925777
712924.064201209
712925.041459276
712931.710885738
712928.805990903
712926.405884245
694287.273325376
694296.681878457
694295.051411497
694285.141830344
694291.011479805
694292.869751952
694287.290730073
694296.692221944
694295.061773802
694284.536188945
694290.656670548
694292.795912603
694287.121497442
694296.607893694
694294.983558141
694284.445948034
694290.601376092
694292.783335064
671749.283671686
671732.696079331
671726.30867562
671755.078388034
671740.812943285
671728.589633335
671749.293866078
671732.695756389
671726.308769546
671754.765023258
671740.584885373
671728.645194944
671749.175232999
671732.670491763
671726.293536123
671754.73475675
671740.564409072
671728.655909467
647694.181453026
647661.633169067
647644.722379937
647679.601622418
647654.251266296
647643.295541297
647694.208858453
647661.646405553
647644.735074699
647679.501401751
647654.215468901
647643.275342561
647693.987281093
647661.521554694
647644.640867769
647679.494356113
647654.21410904
647643.272322898
616789.214185832
616831.163337247
616888.137213899
616818.467958669
616852.651816718
616892.351482415
616789.223921816
616831.169464336
616888.146501194
616818.356631087
616852.526611755
616892.316537925
616789.129784802
616831.105290503
616888.069310225
616818.343781266
616852.512052655
616892.313195846
800033.54562636
800024.91735838
800031.00792998
800033.222122794
800025.174682224
800030.850928832
800033.545859212
800024.917814643
800031.008401742
800033.221018484
800025.17260427
800030.845116109
800033.54311002
800024.912800594
800031.003026286
800033.220939856
800025.172454844
800030.844542945
43029.4999161781
86266.6834167739
103585.364837418
105843.364598114
104772.430623344
104662.281471002
107281.545679536
106182.03668005
100056.607910816
94960.0351132662
92464.4420405767
95048.7923382824
90395.2949560592
126586.525502149
127871.004017585
40513.1115237188
80036.9949790552
102908.924472387
109481.232927754
113729.684335476
114434.002278454
114006.49196535
109606.097839501
102631.273355833
99512.0095217568
96283.2347899574
84924.6278003034
82234.814805035
127028.523047526
128492.714819216
32731.9590894983
49467.5621318417
79214.5968680183
100190.555955337
106207.020406732
106668.07507586
106563.643014634
103587.43569813
95774.6903046394
94097.3556296543
95373.4684910347
81726.2126109129
73793.8461477212
129266.226046584
163602.970088755
38441.7521856392
20168.7528054442
34023.032069216
78122.97558548
108686.633398113
118101.723348091
108219.629624086
98552.3852828494
90873.9128021626
91610.9021104134
93815.4787247976
83073.1554389812
80352.1321389352
132416.712532773
192184.340142701
59491.035220433
94610.9096739926
113214.056834094
107111.812767562
103426.235009729
104263.764597251
104923.995439165
104432.508990552
99112.2291385883
92201.1952044016
88409.5949472277
91033.7942088526
91268.6115070793
131192.955168146
131896.048664305
60002.506586328
100229.306028359
104813.414402912
105186.810939485
111860.003649736
114342.259389732
112123.443165822
109637.520098277
103526.458577589
97950.2101018761
91314.9541749037
84398.8459262929
84490.6649900374
128543.715680155
137804.281152791
54505.6917286633
74871.1035969774
91560.2131454123
94931.6592265741
104405.773259092
107333.647854156
105338.262158792
103303.23721362
97443.4368701635
92217.2686032288
89714.8341713169
79384.7596506363
79785.1765425631
133033.592450905
171082.903002042
72065.1871444025
39205.4926805985
50606.1172563211
79486.9962871935
108135.374119787
117250.18663843
103711.29375053
95172.9844574412
94178.9754303013
91359.8889616575
90517.3560727479
82075.3680087254
84529.7812979014
140319.971676739
198112.647979516
43029.4911303892
86266.6464062905
103585.306550307
105843.322679532
104772.420585277
104662.283944101
107281.548108918
106182.037768342
100056.61780246
94960.0381174876
92464.4424818834
95048.7876950864
90395.2839600814
126586.515811005
127871.001935573
40513.1061509271
80036.9622000359
102908.891914616
109481.208027363
113729.676986234
114434.000273426
114006.49097729
109606.102466318
102631.279972231
99512.0117853728
96283.2331337959
84924.6211217846
82234.8041877516
127028.51061234
128492.714338183
32731.9501333207
49467.5638747004
79214.5782971018
100190.541281524
106207.016517095
106668.075963225
106563.641971907
103587.445711757
95774.701868316
94097.3730781113
95373.4664468135
81726.199101068
73793.8372632169
129266.211689112
163602.958858933
38441.7396604872
20168.7590490394
34023.0384325776
78122.9683022449
108686.633196041
118101.716722848
108219.618897343
98552.3904400375
90873.926088926
91610.9180673803
93815.4844351757
83073.1485820975
80352.126138532
132416.697618758
192184.325593125
59491.1537128057
94611.0764778823
113214.303740389
107112.034724049
103426.246317653
104263.727199318
104924.005623835
104432.585216748
99112.1306948488
92201.199989789
88409.6028509588
91033.8171666406
91268.6473044827
131192.995638679
131896.08283665
60002.6205279884
100229.472060753
104813.480589855
105186.868701835
111859.972887611
114342.315557919
112123.508650133
109637.594155096
103526.431411344
97950.1911251065
91314.9335206473
84398.919762346
84490.7316840652
128543.788134814
137804.237461537
54505.7507679883
74871.1941728021
91560.2231366764
94931.6788902397
104405.698004045
107333.723575601
105338.305346403
103303.177022122
97443.3895989
92217.1976747973
89714.8356952628
79384.8950274286
79785.2938716346
133033.704566737
171082.879822298
72065.2634537484
39205.4907474008
50606.0428940775
79486.9932697933
108135.241203488
117250.271204642
103711.399857281
95172.9308165711
94178.9329909113
91359.8213755555
90517.3258188865
82075.447382408
84529.900729778
140320.161408685
198112.693702418
43029.5489677264
86266.893842814
103585.700538295
105843.605273818
104772.475826854
104662.240811933
107281.514964561
106182.020789397
100056.531100317
94960.0070740039
92464.4416022112
95048.834114214
90395.4056119149
126586.630549153
127871.027919539
40513.1412758678
80037.1768254599
102909.106891707
109481.374506977
113729.719347181
114433.996218475
114006.47869212
109606.049108622
102631.216760445
99511.9860414698
96283.24949652
84924.6824459307
82234.9169011121
127028.645352443
128492.736726511
32732.0047877621
49467.5411728348
79214.69324667
100190.624196354
106207.031805441
106668.049178706
106563.631989863
103587.341422054
95774.5916407688
94097.2063109106
95373.4913433161
81726.3333881171
73793.9287823593
129266.369209417
163603.094830304
38441.8221145961
20168.7109560162
34022.9869964332
78123.0050255263
108686.618162189
118101.745866746
108219.686242117
98552.3178905627
90873.8002224854
91610.77046632
93815.4332547492
83073.2184276282
80352.1915583502
132416.86349443
192184.494112467
59491.1733772018
94611.1046757338
113214.346655274
107112.074669665
103426.250982491
104263.724600416
104924.008928964
104432.595503957
99112.1228351344
92201.2001343011
88409.6031611262
91033.8190450596
91268.6497603033
131192.998256678
131896.085249495
60002.6396322251
100229.500456841
104813.492693297
105186.880396717
111859.969652607
114342.326667583
112123.51991776
109637.604806232
103526.430295692
97950.1895034588
91314.9308932227
84398.9264122458
84490.7373348662
128543.794744324
137804.233252224
54505.7604274837
74871.20924815
91560.2236354939
94931.6857574332
104405.688275353
107333.738655184
105338.314578975
103303.170395137
97443.3849088799
92217.1897924853
89714.8349256258
79384.907914181
79785.3039037324
133033.714947658
171082.877404553
72065.2793399921
39205.4899156944
50606.027082048
79486.9938620197
108135.222863952
117250.287759333
103711.417554853
95172.9259475851
94178.9277565117
91359.8133282929
90517.321390255
82075.4550803263
84529.9117476681
140320.179133664
198112.698991766
194054.24890672
46228.6963373143
20739.1122564246
50965.1717041713
101877.188229709
132164.755941692
116615.4892851
95023.7118586325
84710.3588432503
89656.4273393754
91536.4592569603
85408.8697320504
84130.3575159813
125705.316544313
212102.06164935
268225.471800576
75531.8716665949
22217.8495447417
33462.7560938786
96975.3923684167
139634.406903074
123956.588210105
96552.0125051422
82818.5074181781
86545.9560971656
90842.8065548042
87207.7302776282
86959.8833781968
124504.038715518
221623.16608748
324753.577390077
109330.100279682
27420.686247877
29584.4449582006
101590.44858543
145712.187840708
126124.030220834
96071.6515448779
81294.3196877666
84535.654160857
90809.4251000229
88142.4340066664
89044.7502872383
130158.779992417
241128.609875483
234645.762448709
76447.8176005308
30542.2503117627
58520.2165861172
101254.73879728
132684.129347524
111673.623499792
90116.3143525007
86509.3275990124
90282.587747378
91020.9573217227
84489.9948323828
86648.5214088707
139906.804260205
218040.640166519
302577.181195586
106255.804736017
31385.2664605935
41418.6079362962
96672.1901789559
140012.124304349
118289.622975502
90629.1314674119
81410.8850427145
87182.1937850429
90847.2084566109
86268.7161758185
88388.0454570895
136328.138712844
239947.496354862
333296.672252806
124640.10375817
32018.2505480331
31755.4555790063
101031.973446388
145951.68841592
127531.863125499
92615.7396561983
80292.0429832377
84728.2741451047
90845.7801278663
87805.001890449
89765.7908741665
134118.424282653
241212.424085322
194054.188063951
46228.6691045113
20739.1129354768
50965.1736223587
101877.191350412
132164.746653953
116615.473413934
95023.7070909076
84710.3694485637
89656.4477509437
91536.4718238853
85408.8619385083
84130.3421899458
125705.297159677
212102.047729675
268225.423029148
75531.8447350781
22217.848431965
33462.76729477
96975.3891216706
139634.391292287
123956.569332914
96552.004228189
82818.5128158986
86545.9701874263
90842.8153803176
87207.7286194327
86959.866434065
124504.01664838
221623.149543806
324753.557046274
109330.084981158
27420.683780345
29584.4304800294
101590.455304032
145712.199323112
126124.01582993
96071.6412928282
81294.3213603669
84535.659539468
90809.4273916118
88142.4341839128
89044.7405907897
130158.770545066
241128.606697389
234646.041766645
76447.98030122
30542.2329206747
58520.1887690308
101254.646545556
132684.142545099
111673.718889567
90116.2970202954
86509.2165207266
90282.4007263514
91020.866392827
84490.0492751258
86648.649803095
139906.987052842
218040.780250788
302577.38096672
106255.965767321
31385.2812601919
41418.564325968
96672.1768315309
140012.122058161
118289.751463567
90629.1720859577
81410.8267899327
87182.0630505885
90847.1427803375
86268.7695395067
88388.1660421331
136328.323798942
239947.572597783
333296.738690677
124640.184613459
32018.2678391319
31755.4578695947
101031.936959554
145951.585919046
127531.93615122
92615.7815078099
80292.0229776022
84728.224869393
90845.7577916198
87805.0228065174
89765.8727296404
134118.510274773
241212.462309256
194054.601428872
46228.8538995044
20739.1066830183
50965.1537157569
101877.149741375
132164.792729207
116615.579656355
95023.7212187532
84710.266934438
89656.2683148816
91536.3563013058
85408.9465241616
84130.5024447101
125705.509904646
212102.206467983
268225.750924298
75532.0281006587
22217.8559538903
33462.6850333763
96975.388173672
139634.48672519
123956.698350013
96552.0471211974
82818.4559408923
86545.846317204
90842.7367198875
87207.7534840178
86960.0487143128
124504.256024603
221623.341026613
324753.689904
109330.188237345
27420.7014519331
29584.5366162684
101590.389892096
145712.113341737
126124.11962942
96071.7089898473
81294.3025865906
84535.6144329334
90809.4064919047
88142.4400715828
89044.8492368935
130158.873492204
241128.64130886
234646.093077146
76448.0085381533
30542.2285615979
58520.18432528
101254.634605861
132684.147442422
111673.735645149
90116.2974320834
86509.2026899384
90282.375677377
91020.8546704469
84490.0551896781
86648.6630602062
139907.004911647
218040.795623598
302577.417842675
106255.994227728
31385.2831107088
41418.556768185
96672.1784886512
140012.123781228
118289.77216388
90629.1805881559
81410.8197860733
87182.0454984654
90847.1342043594
86268.7746507957
88388.1781687276
136328.342705608
239947.581130354
333296.751516355
124640.198876123
32018.2705166346
31755.4579981067
101031.934502268
145951.569940141
127531.947537207
92615.7892406691
80292.0208505723
84728.218332491
90845.7551030449
87805.0241085012
89765.8804744609
134118.518929855
241212.466380319
)
;

boundaryField
{
    inlet
    {
        type            timeVaryingMappedFixedValue;
        fieldTable      p;
        value           nonuniform List<scalar> 
24
(
800000.22001853
800000.22001853
800000.22001853
800000.22001853
800000.22001853
800000.22001853
800000.22001853
800000.22001853
800000.22001853
800000.22001853
800000.22001853
800000.22001853
800000.22001853
800000.22001853
800000.22001853
800000.22001853
800000.22001853
800000.22001853
800000.22001853
800000.22001853
800000.22001853
800000.22001853
800000.22001853
800000.22001853
)
;
    }
    outlet
    {
        type            freestreamPressure;
        freestreamValue uniform 101325;
        supersonic      false;
        value           nonuniform List<scalar> 
156
(
43676.3203494262
86929.3090456333
102661.164784376
104650.08202383
103710.305566702
103538.004136569
105057.90773824
104356.664850555
100507.560574356
97147.4083106779
95771.0465756001
98938.2084663104
101033.30807355
102468.089120122
103888.401863534
60149.4122620145
98257.9215552827
107682.073894889
105198.836943294
102723.399228373
103166.139912456
103455.276728606
103200.114873689
99893.1590807236
94986.3708566075
92340.3104347654
97191.1178085968
101145.53776111
102682.113788482
104137.183328465
43676.3148593801
86929.2595057411
102661.131197102
104650.052523324
103710.298842721
103538.005740943
105057.909327882
104356.66579385
100507.566862777
97147.4099252423
95771.0461633396
98938.2065806503
101033.30801048
102468.088413451
103888.401320451
60149.5512287613
98258.0308012514
107682.183616669
105198.978812673
102723.406636167
103166.118812146
103455.283238844
103200.159335842
99893.0960485459
94986.3779617162
92340.3207238957
97191.1276285293
101145.537053787
102682.117451801
104137.189405781
43676.3507614625
86929.5926564182
102661.357902927
104650.250461173
103710.335726259
103537.977783398
105057.888126859
104356.653083106
100507.511717981
97147.3929011979
95771.0527251206
98938.2257489768
101033.308949996
102468.096636205
103888.407068336
60149.573919693
98258.0492319032
107682.202781864
105199.004452045
102723.409684195
103166.117453422
103455.285248031
103200.165365044
99893.0910293705
94986.378410038
92340.3212778466
97191.1283514906
101145.536980418
102682.117726895
104137.189917427
106757.272001064
104342.013534716
106809.497498845
104099.141745854
102769.666995118
101936.028305489
101513.915919504
107775.19647663
105186.757736742
106831.577826574
103786.49122741
102619.596847342
101562.058998543
101369.616151686
106757.272042193
104342.013533301
106809.496621154
104099.141707118
102769.667436871
101936.02858394
101513.916034226
107775.199544776
105186.751605326
106831.573025592
103786.490723885
102619.598281262
101562.057796397
101369.615378514
106757.272935658
104342.015114224
106809.506375744
104099.141602415
102769.661900092
101936.0250042
101513.914569194
107775.199644888
105186.751032567
106831.572598534
103786.490731016
102619.5984708
101562.057692889
101369.615308524
66070.8316998986
48872.3801268858
36785.053923868
44811.3179396319
75201.3813025514
63320.7807929738
59567.209202696
74311.0793872543
66070.8114591782
48872.3806562843
36785.0348336084
44811.3059994536
75201.3683770803
63320.910270013
59567.2848781918
74311.1537005726
66070.9458214099
48872.376869571
36785.1547984325
44811.385136049
75201.3676767759
63320.9321078969
59567.2972347726
74311.1690694198
)
;
    }
    sides
    {
        type            zeroGradient;
    }
}


// ************************************************************************* //
