/*--------------------------------*- C++ -*----------------------------------*\
  =========                 |
  \\      /  F ield         | OpenFOAM: The Open Source CFD Toolbox
   \\    /   O peration     | Website:  https://openfoam.org
    \\  /    A nd           | Version:  11
     \\/     M anipulation  |
\*---------------------------------------------------------------------------*/
FoamFile
{
    format      ascii;
    class       surfaceScalarField;
    location    "0.0001000042";
    object      phi;
}
// * * * * * * * * * * * * * * * * * * * * * * * * * * * * * * * * * * * * * //

dimensions      [1 0 -1 0 0 0 0];

internalField   nonuniform List<scalar> 
2478
(
0.000842095167609955
-0.00017899813815718
-9.0361599713179e-11
-1.19001081178797e-10
-0.00106613374136614
0.000644747338577685
-0.000157880647667027
-6.59653125471751e-10
-6.25866072726314e-10
-0.000136829598122229
-5.28485078588698e-10
-4.55552442068987e-10
0.000473793222352175
0.00050522169502243
-4.47437581938693e-05
-3.79645190013832e-10
-3.97576798848338e-10
-0.000639636607603182
0.000386824563281145
-3.94659553236641e-05
-1.068026151622e-09
-1.02841470940324e-09
-3.42030147820578e-05
-9.21311445509871e-10
-8.4466591701712e-10
0.000284263330890846
0.000168395228701127
6.62078891060583e-11
4.49317046785115e-11
-0.000213194416111275
0.00012893309900628
7.25260826113343e-10
7.62863022589228e-10
1.31055814841358e-09
1.39349309405423e-09
9.47488650632247e-05
0.000842094819122926
-0.000178997019086623
9.30856804940046e-11
-0.00106613200761681
0.000644744315640111
-0.00015787984113315
6.59061925260135e-10
-0.000136829283418351
5.25360121427171e-10
0.000473788532485363
0.000505221569916951
-4.47439572234269e-05
3.8136466272258e-10
-0.000639636421593085
0.000386822493359142
-3.94686414825848e-05
1.06706158237721e-09
-3.42067795308294e-05
9.18059915225701e-10
0.000284260260724256
0.00016839534632278
-6.41982580377315e-11
-0.000213194396713738
0.000128932972238328
-7.26357227132362e-10
-1.31390548256931e-09
9.4749038267228e-05
0.000842095165778522
-0.000178998140648237
-1.19386935829979e-10
-0.00106613373766017
0.000644747336337325
-0.000157880647884725
-6.2653067515973e-10
-0.00013682959501451
-4.55992898442618e-10
0.000473793218684417
0.000505221693841181
-4.47437598231403e-05
-3.97703751333321e-10
-0.000639636605304843
0.000386824562084719
-3.9465954953942e-05
-1.0290479195217e-09
-3.42030130563687e-05
-8.45094690787081e-10
0.00028426332940194
0.000168395228726953
4.48258243674823e-11
-0.000213194415554602
0.000128933098902555
7.62646364897007e-10
1.39309960396346e-09
9.47488651100485e-05
0.000842094850942282
-0.000178997001079325
8.66416630823132e-11
-0.00106613204047195
0.000644744350164671
-0.000157879903447258
6.53596114567629e-10
-0.000136829409284181
5.238539329969e-10
0.000473788574584762
0.000505221588169549
-4.47439416052947e-05
3.79536326303685e-10
-0.000639636442197331
0.000386822512285067
-3.94686751171162e-05
1.06126132084746e-09
-3.42068515447617e-05
9.16584476124294e-10
0.000284260283453181
0.000168395347077305
-6.72823494509735e-11
-0.000213194401655598
0.000128932974096823
-7.26764288181726e-10
-1.31561573156361e-09
9.47490432224723e-05
0.000842095195704277
-0.000178998114991872
-8.89853371110333e-11
-0.00106613378484448
0.000644747372462143
-0.000157880681912099
-6.52337986146306e-10
-0.000136829690767415
-5.20290070331634e-10
0.000473793273221167
0.000505221710610248
-4.47437439987226e-05
-3.81124904259931e-10
-0.000639636632835146
0.000386824581099985
-3.9465981040632e-05
-1.05966475991062e-09
-3.42030645544323e-05
-9.12900351910913e-10
0.00028426335456272
0.000168395228652936
6.53887624385216e-11
-0.000213194421797826
0.000128933100913074
7.2807898067722e-10
1.31937339035277e-09
9.47488650776332e-05
0.000842094853054966
-0.000178996999175284
-0.00106613204298714
0.000644744352385393
-0.000157879905820569
-0.000136829415181117
0.000473788577281474
0.00050522158952301
-4.4743939993649e-05
-0.000639636443947689
0.000386822513590555
-3.94686763566971e-05
-3.4206854950013e-05
0.000284260284866897
0.000168395347112037
-0.000213194402103634
0.000128932974217644
9.47490435367013e-05
0.000474562353799589
2.39258435995229e-08
-8.51971333325902e-10
-5.62375100426806e-10
0.000475880819518581
2.45235566804841e-08
-3.10779549881138e-11
4.62609066179988e-10
1.00088639148595e-08
-1.82611643314385e-09
-9.06488125068747e-10
0.00047731385520657
0.000284732312279319
9.19776303249164e-09
-1.00576165619612e-09
-7.61821165667313e-10
0.000285528490725146
8.77558972381008e-09
-1.3298314191371e-09
-7.5597750791561e-10
3.04590748597625e-09
-8.39409747927736e-10
3.12334217896556e-10
0.000286389229119494
9.49067235643589e-05
1.16153974508365e-09
1.46445614700652e-09
9.51746904209669e-05
1.64360738560965e-10
8.03148060915266e-10
-8.57356122132159e-10
4.55559493340446e-10
9.5463099545922e-05
0.000474556464799778
2.38969973711655e-08
8.27669611124481e-10
0.00047587942437903
2.71063029006098e-08
-8.09643281238226e-12
1.61933093445867e-08
1.71596252859134e-09
0.000477315373984326
0.00028472824002294
5.73680224093438e-09
9.81824940630722e-10
0.000285526616875456
7.54809296142633e-09
1.28910288666557e-09
5.19984333320405e-09
7.33680938431232e-10
0.000286390599955165
9.49069457867314e-05
-1.18786705303889e-09
9.51744899750675e-05
-1.99861057825074e-10
7.62780630054593e-10
9.54629582017451e-05
0.000474562341365715
2.39742164783591e-08
-5.59269359285113e-10
0.000475880781006265
2.46068212660317e-08
4.79807039585611e-10
1.03152839914548e-08
-8.31562981939028e-10
0.00047731383216811
0.000284732307319372
9.22299146766375e-09
-7.55335934966329e-10
0.000285528470484596
8.81389382068358e-09
-7.37541285423388e-10
3.17678196785518e-09
3.66990877682764e-10
0.000286389222255731
9.49067223736485e-05
1.468176706891e-09
9.51746857870926e-05
8.0994173650914e-10
4.89788763908573e-10
9.54630949580371e-05
0.000474556538200469
2.3538771303541e-08
8.82499238779016e-10
0.000475879582132022
2.64287514127126e-08
2.94568162234349e-10
1.47335866376198e-08
2.56486620153372e-09
0.00047731552153762
0.000284728287225353
5.51067148629649e-09
1.06689433920478e-09
0.000285526751386271
7.11610608292038e-09
1.57356897884054e-09
4.27903873716651e-09
1.40307435570093e-09
0.000286390776087078
9.49069548701005e-05
-1.13135922705969e-09
9.5174494783804e-05
-4.31553406291668e-11
1.27144864358079e-09
9.54628958144566e-05
0.000474562538162767
2.34089608877608e-08
-8.6095085710192e-10
0.000475881218748138
2.29837429860727e-08
-2.74574684495064e-10
5.68398902456909e-09
-2.52344191977718e-09
0.00047731392187696
0.000284732396383258
8.91378308090409e-09
-1.04924091057267e-09
0.000285528724046509
7.98705433231349e-09
-1.55222617333368e-09
9.34756599652465e-10
-1.35009556279878e-09
0.000286389182261263
9.49067415709685e-05
1.15386237739025e-09
9.51747425447177e-05
7.35138558100729e-11
-1.22007123973039e-09
9.54631238855406e-05
0.000474556538288907
2.35091386702798e-08
0.000475879587048858
2.64051950441598e-08
1.47076247501406e-08
0.000477315534032365
0.000284728288644482
5.49319556969506e-09
0.000285526756900874
7.09898982182095e-09
4.25368716329899e-09
0.000286390787968849
9.49069553064558e-05
9.51744950380404e-05
9.54628903984731e-05
4.1334694273225e-05
6.05324446980009e-10
1.74712233059777e-09
0.000530430955455812
1.03339509252712e-05
9.04768210764455e-11
1.12561708071795e-09
0.000318261970580235
-7.59250051501556e-10
1.71632657082954e-09
0.000106087255097459
4.13319369278228e-05
-6.75646446126124e-10
0.000530432454605824
1.03343393289136e-05
-1.55044837428855e-10
0.000318261972595963
6.06630637107856e-10
0.000106087152266894
4.13349512981972e-05
1.74346253688402e-09
0.000530430968367296
1.03341005104453e-05
1.14037032372455e-09
0.00031826197102335
1.70540752835813e-09
0.000106087252250886
4.13279470407513e-05
-6.14928597516932e-10
0.000530432161511304
1.03318741839477e-05
-3.54394383847781e-11
0.000318261662186534
6.01767570019077e-10
0.00010608711458639
4.13315175209364e-05
6.78826607718088e-10
0.00053043054974103
1.03319945674495e-05
7.55908339936974e-11
0.000318261884471778
-3.66675515580013e-10
0.000106087275296437
4.13276137457252e-05
0.000530432138027685
1.03316253790242e-05
0.000318261627462652
0.000106087110165031
3.46675778072641e-05
-2.04158848485757e-09
5.62880962001223e-10
0.000575262048909139
8.66704041477137e-06
-1.72661112311919e-09
9.16659534248073e-10
0.000345158640221639
-1.45401148998574e-09
1.39405444230401e-09
0.000115052769711398
3.46742645451446e-05
1.76469872715341e-09
0.000575262444972837
8.66985286305611e-06
1.44493308144216e-09
0.000345158333475082
1.1652681923221e-09
0.000115052824412175
3.46681620327386e-05
5.71158388054833e-10
0.00057526206437243
8.66733340989406e-06
9.25796533998626e-10
0.000345158643613814
1.3973729084656e-09
0.000115052768052646
3.46693999742885e-05
1.98784744166649e-09
0.000575262053587355
8.66730358605963e-06
1.74729032631493e-09
0.0003451580730812
1.44430103152845e-09
0.000115052796824756
3.46626183036828e-05
-1.72284889517682e-09
0.000575261643040706
8.66451454973851e-06
-1.47804152229002e-09
0.000345158499262159
-1.13666843905985e-09
0.000115052778350499
3.46688518736813e-05
0.000575262023426636
8.66700402669555e-06
0.000345158051762061
0.00011505279635925
2.39617102656974e-05
3.46619924250632e-09
4.58896138260225e-09
0.000606663114966602
5.99101868780386e-06
1.85247664912869e-09
3.04202060389487e-09
0.00036400178977492
5.81176769199037e-10
2.20257513584236e-09
0.000121333514345505
2.39471934740715e-05
-3.52185566446879e-09
0.000606663743168567
5.98667700018435e-06
-1.91716291724365e-09
0.000363999929772277
-6.73182099853505e-10
0.000121333252342337
2.39618503104876e-05
4.57992260517173e-09
0.000606663129963636
5.99110136616601e-06
3.03987171654425e-09
0.000364001792708235
2.1898098965102e-09
0.000121333517635351
2.3944492964287e-05
-3.44248405416457e-09
0.000606663273658131
5.98502915731482e-06
-1.851191634174e-09
0.000363999698080003
-6.84730499351475e-10
0.000121333182290498
2.39593365260853e-05
3.50180126649363e-09
0.0006066627934219
5.98970165409732e-06
1.91436917322063e-09
0.00036400169741696
8.06947118175451e-10
0.000121333490199817
2.39443132075565e-05
0.000606663230472042
5.9848937131335e-06
0.00036399967902835
0.000121333177359198
3.01187925588655e-06
-5.783216760623e-09
-3.35620747746136e-09
0.000611747649289391
7.53508924003238e-07
-3.29006654933199e-09
-9.20814704921755e-10
0.000367047030350812
-2.32177053537813e-09
2.93780753630318e-10
0.000122349962131157
3.03274431047679e-06
5.50743691808426e-09
0.00061174877956258
7.60099924893703e-07
3.01274255700259e-09
0.000367049383187314
2.03270026814329e-09
0.000122349942067276
3.01243091799437e-06
-3.37028147057161e-09
0.000611747663054659
7.53790526574361e-07
-9.26556658926037e-10
0.000367047033734474
2.86253580463868e-10
0.000122349966347524
3.02838226295011e-06
5.77568406041071e-09
0.000611748405293542
7.57771026264529e-07
3.31927455464974e-09
0.000367049190851588
2.26267266078065e-09
0.000122349914800986
3.00757340869994e-06
-5.4895945892329e-09
0.000611747407696297
7.51317602506096e-07
-3.03903775191947e-09
0.000367046966472604
-1.95660908655637e-09
0.000122349938067264
3.02778987120399e-06
0.000611748372391226
7.57461588479834e-07
0.000367049172565903
0.000122349912623313
7.93219691308157e-05
6.44492506189425e-09
7.72839153681234e-09
0.000712012266022452
1.98303906749971e-05
3.31705804994644e-09
4.61351664147016e-09
0.000427213821933282
1.25271589331228e-09
2.85222168301159e-09
0.000142403907907525
7.9294210791646e-05
-6.57544900559831e-09
0.000712014827179354
1.98229410989795e-05
-3.45413996022262e-09
0.00042721013290056
-1.40298742399127e-09
0.000142403138729555
7.93222503599433e-05
7.71797184446815e-09
0.000712012275882302
1.98305344573456e-05
4.61254430462153e-09
0.000427213823333159
2.84425609491578e-09
0.000142403912314883
7.92916279324184e-05
-6.37330746847391e-09
0.000712014449029365
1.98214514123751e-05
-3.24752210816319e-09
0.000427209948446506
-1.31723213559571e-09
0.000142403124665698
7.93193802509473e-05
6.50964654657629e-09
0.000712012084022098
1.98290866287269e-05
3.3822300070244e-09
0.000427213776347575
1.48549095458283e-09
0.000142403881815944
7.92913010486638e-05
0.000712014406525682
1.98212743102473e-05
0.000427209924083214
0.000142403122843396
0.00114413302220977
-1.1671823950865e-08
-9.23053707936865e-09
0.00214372305456386
0.000286033704782638
-5.94329397946448e-09
-3.54174668911432e-09
0.0012862273979395
-3.75183621502276e-09
-1.0947358776328e-09
0.000428743787010379
0.00114417485570694
1.13956609340939e-08
0.00214372266610874
0.000286047758502708
5.66483397300074e-09
0.00128623206143546
3.4532801174267e-09
0.000428745197381436
0.00114413355650905
-9.25011926935062e-09
0.00214372307417292
0.000286033993087947
-3.55455250997117e-09
0.00128622738040315
-1.10783204962037e-09
0.000428743793303592
0.00114416988790322
1.16793630451596e-08
0.00214372183523893
0.000286045316321215
5.96503991524572e-09
0.00128623153174461
3.68516111528237e-09
0.000428745168287317
0.00114412864463711
-1.13854489721755e-08
0.00214372264493994
0.000286031468093462
-5.67772665493148e-09
0.00128622736745742
-3.36974675241427e-09
0.000428743737409897
0.00114416921773721
0.00214372175222314
0.000286044986671554
0.00128623147851739
0.000428745168145728
0.000755031044784349
2.72059093786234e-10
3.7535994107862e-09
0.00308852887014055
0.000188769829231244
-1.74330937565467e-09
1.76740538794951e-09
0.00185314439296089
-2.59020843814371e-09
1.05685536450767e-09
0.00061773278245193
0.000755063118438678
-7.30961269811148e-10
0.00308857028694924
0.000188777489918911
1.27460513270252e-09
0.00185316928060825
2.11112906127985e-09
0.000617735446764408
0.000755031970634112
3.73261982444546e-09
0.00308852891240028
0.000188770294759472
1.75429440093557e-09
0.00185314439441455
1.04401337271479e-09
0.000617732789645896
0.000755056568034114
-2.46102583516088e-10
0.00308856944190607
0.000188774230181738
1.70879462261988e-09
0.0018531688595029
2.53036023026548e-09
0.000617735382576381
0.00075502487223729
7.25070451487557e-10
0.00308852831175222
0.000188766774021253
-1.23538845776469e-09
0.00185314422677536
-2.0373524722752e-09
0.00061773271290742
0.000755055528327307
0.00308856936082593
0.000188773719531741
0.00185316882026252
0.000617735378167248
-0.00176391375937852
-1.80685829524805e-08
-1.49149544654398e-08
0.000882838599818397
-0.000440990689433284
-1.37357913236364e-08
-1.06683385198299e-08
0.000529703054607147
-4.39539639494196e-09
-1.3033988742364e-09
0.000176569041440024
-0.00176387728166926
1.76713615042553e-08
0.000882840336982473
-0.000440978981135464
1.33356275467387e-08
0.000529704425581203
3.98451994033759e-09
0.000176569608174703
-0.00176391297216304
-1.49308236481439e-08
0.000882838608211695
-0.000440990293155134
-1.06787550063509e-08
0.000529703056332088
-1.31444101046305e-09
0.000176569044973568
-0.00176388272402687
1.76354766526872e-08
0.000882840153155993
-0.000440981754839166
1.34704558595869e-08
0.000529704327062238
4.25592519798061e-09
0.000176569593617393
-0.00176391814862192
-1.72225683765944e-08
0.000882838484817997
-0.000440993043579175
-1.30602096024826e-08
0.000529703012379557
-3.83315839551195e-09
0.000176569015272874
-0.00176388355518214
0.000882840135971259
-0.000440982186422965
0.00052970431825539
0.000176569592846155
-7.53985887052156e-08
-1.76213039277361e-10
-2.06698295686456e-10
-1.75333345391266e-08
2.57406601079663e-10
2.09341331975418e-10
-1.98053526541137e-10
-2.32437596297055e-10
-7.55155107485519e-08
1.78813653445818e-10
-1.68010802991357e-08
-2.53023318280438e-10
2.00763420590746e-10
-7.54073373871161e-08
-2.06680467336982e-10
-1.75361829650488e-08
2.0895190092074e-10
-2.32204784100885e-10
-7.54290115026349e-08
1.76772229341406e-10
-1.67665348867066e-08
-2.59941242846968e-10
1.99960769351002e-10
-7.5306501094133e-08
-1.79399409715696e-10
-1.75021710468754e-08
2.55939228361104e-10
-2.02908491658133e-10
-7.54211297996406e-08
-1.6763241302497e-08
-4.38087549570254e-05
8.70678985899349e-05
1.07071310863279e-06
1.070700878276e-06
6.70140477413186e-05
-7.1194730252044e-05
3.76716538501748e-06
3.76759878394564e-06
0.000184344844502826
-1.23567188234606e-05
-3.97418711987294e-06
-3.97394124691748e-06
0.000246317567658117
0.000136014508741125
-2.55926483526445e-05
-2.55926589083798e-05
0.000316034655810069
0.00010774918674093
-2.43208707896182e-05
-2.43211074444426e-05
0.000379037622560184
8.48047420909015e-05
-1.80679500992178e-05
-1.80681450478076e-05
0.00046759714972482
5.11661610673978e-05
-1.68400030176472e-05
-1.68401513688524e-05
0.000545728936294354
6.57883254003636e-05
-1.92473584186031e-05
-1.9247415336918e-05
0.000537465731453408
9.86656340400368e-05
-1.17315566182246e-05
-1.1733340006918e-05
0.000461078773501147
6.02002315289287e-05
1.3447622389561e-05
1.34465330988749e-05
0.000398770785643268
4.67526120817557e-05
1.68675177670197e-05
1.68671779698158e-05
0.000268383703676015
5.46380476221034e-05
-1.5778289224463e-05
-1.57785021510579e-05
0.000164251360320681
-0.000825088601507557
1.6202839356078e-08
1.60322209522869e-08
0.000575835094891572
-0.00194553884177277
2.77583410229617e-05
2.77584112139672e-05
-0.00192331528941754
6.87944935005131e-06
6.87944199653003e-06
0.000142742960697936
4.78904853766671e-05
-3.0916361197033e-05
-3.09165641344279e-05
0.000360380187391264
-0.000323002086906551
1.91247271479652e-05
1.91248989522258e-05
0.000386855441599057
-3.18123360513096e-05
1.529437100075e-06
1.52953101634283e-06
0.000393690850029519
0.000168654743404913
-1.47474479576255e-05
-1.47474743195996e-05
0.0004105928732739
0.000116931377342205
-7.14286900504291e-06
-7.14300434348538e-06
0.000478177960661333
2.86934079322357e-05
2.30055458512538e-06
2.30055142172214e-06
0.00054890271974942
-3.55653563718334e-05
8.72005390511831e-06
8.72000194228383e-06
0.000604240250130994
-3.08506443841293e-05
5.72671932897969e-06
5.72673719039017e-06
0.000609276486341221
2.7439293572575e-05
-2.29702617087421e-06
-2.29685093909099e-06
0.000578019260358597
4.27912497268323e-05
-5.20115517239762e-06
-5.20109364204554e-06
0.000525177532223237
6.84108483543131e-05
1.08870547349885e-07
1.07394642165034e-07
0.000362065218902944
2.68406798948788e-05
1.08713896594198e-05
1.08710834185524e-05
0.000152026421639432
-0.000277558544402247
1.3828074930325e-06
1.38266403798212e-06
0.000431778721323506
-0.00110017287449069
-2.07507130482851e-06
-2.07533474791578e-06
-0.00165050708325356
2.522492962931e-05
2.52244751895048e-05
0.000307383602547925
-0.000340581382172179
4.53722403226037e-05
4.53726091836787e-05
0.000477799086543904
-0.000476730977283934
-9.93198591809907e-06
-9.93170404849357e-06
0.000516185447048802
-5.91732537838938e-05
-5.72716049675076e-06
-5.72673249590213e-06
0.000505384099077752
0.000173426712348691
2.76767406178567e-06
2.76597015616057e-06
0.000469037077378628
0.000162303608753622
-4.07548020709645e-06
-4.07695973800822e-06
0.000494186370189961
1.3586171510708e-05
2.03704022998257e-06
2.03669798844546e-06
0.000548985196962134
-8.45261317700987e-05
1.20452152918506e-07
1.20525324480577e-07
0.000577631619960587
-5.93938067365479e-05
-3.111012714049e-06
-3.11168080236669e-06
0.000574709762982231
6.82379555940523e-06
1.83786241420911e-06
1.83724539454236e-06
0.000573370295247924
4.35032462615223e-05
-3.59645077209508e-06
-3.59693613708148e-06
0.000576889092559207
7.25349039705887e-05
-1.33836387703387e-06
-1.33906220903379e-06
0.000511617387041901
1.99624132033077e-05
-1.10278645843191e-06
-1.10312381485569e-06
0.000357574587084409
-8.10888048225925e-05
1.98384070088503e-05
1.98381607320733e-05
0.000290340822302176
-0.000487440588382058
6.59772191436591e-06
6.59761694137272e-06
-0.00105271582357709
1.97195365528812e-06
1.97181402480592e-06
0.000371126491726435
5.82526102621921e-05
5.82534680901762e-05
-0.000734934730749964
0.000281510956262284
-9.53038643285974e-06
-9.53011043116423e-06
-0.000368692373270025
0.00037506943530487
-1.41736224940163e-05
-1.41735886393726e-05
-0.00012564149681748
0.000474503894168423
-1.6550543503165e-05
-1.65502726755453e-05
0.000104183453975404
0.000474699516611164
3.73075951026305e-06
3.73021473814748e-06
0.000151078805177909
0.00047484029160966
-2.44056652414011e-06
-2.44057235707331e-06
2.39691311285695e-05
0.000478149219169571
-1.34476271604948e-05
-1.34473787797803e-05
-5.87470654659547e-05
0.000483551115852195
-9.84453427941597e-06
-9.84425436685558e-06
-4.72760347175839e-05
0.000485482700968838
-2.76496453598064e-06
-2.76476133218191e-06
1.68410867037885e-06
0.000494098201701632
3.56926622042681e-06
3.56934954968429e-06
2.48392096593088e-05
0.000508659830606864
7.51669733164303e-06
7.51662138687655e-06
3.37545861363638e-05
0.000491844331648601
4.07465557764942e-06
4.07457286610269e-06
9.67747734130709e-06
0.000442330860357562
5.52839436043713e-06
5.52831971387935e-06
-2.43988134737014e-05
0.000335332511395235
1.91435621446997e-06
1.91461383971576e-06
-0.000122911311588691
-4.40049273265833e-06
-4.40051275591612e-06
-0.00050882550996318
5.41696243607363e-05
-3.58581319666632e-06
-1.07070577796178e-06
0.000220075103929969
-0.000167801854544006
-3.76716460278123e-06
0.000368684372724188
-7.54552558557041e-05
3.97419550397641e-06
0.000376741658309482
0.000162823349586252
2.55926553286704e-05
0.000372414599306659
0.0001251359738058
2.43208901180742e-05
0.000421529388259058
5.78997513746772e-05
1.80679748983757e-05
0.000507076681157531
4.64704602190112e-07
1.68400408129758e-05
0.000547544996167672
2.91111743048298e-05
1.92474069302043e-05
0.000534052739524492
9.96558978298974e-05
1.17317002550553e-05
0.000431721052147226
0.000113706071486281
-1.34475494000532e-05
0.000383788429737091
9.59748817942012e-05
-1.68674907580435e-05
0.000222795038160906
-1.97356182801746e-05
1.57782912005588e-05
0.000155282789787329
-0.000868701643049107
-1.61895440294328e-08
0.000590631280059763
-0.00188118115336189
-2.77583842470358e-05
-0.00209075360879742
-6.87944440975612e-06
0.000260435255506129
-0.000279536610465519
3.09163845044188e-05
0.0004901403676193
-0.000352368310996977
-1.91247185100347e-05
0.000484099843406276
-6.29426738406727e-05
-1.52941595942739e-06
0.000467792887304621
0.000151337155817515
1.47474522529174e-05
0.000469892152878951
0.000118259022616177
7.14286203599426e-06
0.000532035331679096
2.50767608120016e-05
-2.30055261393389e-06
0.000591732621689611
-2.13812867156075e-05
-8.72001616991549e-06
0.000621395329350685
3.97175274521519e-06
-5.72670004096151e-06
0.000618333061532199
4.76339548932563e-05
2.29702017239225e-06
0.000586358400532463
6.329623671967e-05
5.20117663397652e-06
0.000535327419073889
5.06921046621092e-05
-1.08724261333056e-07
0.000362328986134368
-1.56509602830977e-05
-1.08713365396439e-05
0.000154328513391426
-0.00032754282953471
-1.38278318963022e-06
0.000408362177488327
-0.00111615358970086
2.07509960825468e-06
-0.00165631891766769
-2.52249306128499e-05
0.000450600196099817
-0.000572195594621359
-4.53722362703665e-05
0.0005929641480881
-0.000511272319977569
9.93193109273396e-06
0.000551895774872508
-3.27440545714133e-05
5.72710933551175e-06
0.000513887601685263
0.000194488777003119
-2.76743801348907e-06
0.000487796688976582
0.000139791804388487
4.07568830264302e-06
0.00051866296365843
7.34757852645341e-06
-2.03694489220882e-06
0.000560215053089844
-5.23933232061424e-05
-1.20437519609211e-07
0.000574517037889982
-1.70457761877958e-05
3.11106973633607e-06
0.00057269310075023
3.48183635398744e-05
-1.83780499395388e-06
0.00057268387424232
3.91043611278619e-05
3.59660240174442e-06
0.000581381648594695
2.60370056412421e-05
1.33845952668957e-06
0.000521376862006793
-1.67542990135952e-05
1.10284620137785e-06
0.000389255682990765
-9.43273043330993e-05
-1.98383558776912e-05
0.000294373239972705
-0.000488236759078092
-6.5976990251591e-06
-0.00102517707109002
-1.97197357228911e-06
0.000481954742762062
-5.82527330491973e-05
-0.000826395752584637
0.0003972401115168
9.53035009614271e-06
-0.000443070990107914
0.000432019599768764
1.41735790792527e-05
-9.47466521708477e-05
0.000474794338298825
1.65505169290994e-05
0.000116618915223941
0.000471973273261151
-3.73071325639025e-06
0.000148449491862666
0.000467786107312021
2.44056299159503e-06
1.03342956364913e-05
0.000458278669893951
1.34476075246169e-05
-6.74633988738042e-05
0.000466819207932878
9.84451235437294e-06
-4.7047802344679e-05
0.000479544465024696
2.76492505597506e-06
6.21343423117953e-06
0.000489641703750161
-3.56929649993567e-06
2.61659494121861e-05
0.000507176302012835
-7.51666955029341e-06
1.36891391004734e-05
0.000496109934577716
-4.07461622791474e-06
-7.44640408152782e-06
0.000455297114618037
-5.52836811936104e-06
-1.49078425944921e-05
0.000327614571821741
-1.91436850325671e-06
-9.63518688189628e-05
4.40049528390091e-06
-0.000479276970945604
-4.38087507121083e-05
8.70679019761568e-05
1.07069203047577e-06
6.70137659608949e-05
-7.11944968986086e-05
3.76753707320455e-06
0.000184344520585176
-1.23564963109063e-05
-3.97398335325548e-06
0.000246317272112688
0.000136014443910653
-2.55926611353987e-05
0.000316034515265299
0.000107749036882139
-2.43210917422403e-05
0.000379037541275989
8.48046535299207e-05
-1.80681414283371e-05
0.00046759704527721
5.11661990950389e-05
-1.68401731368316e-05
0.000545728782665772
6.57883721096285e-05
-1.92474599746331e-05
0.000537465658109318
9.86657564003789e-05
-1.17333284980922e-05
0.00046107865120819
6.02002919826987e-05
1.3446561711128e-05
0.000398770653380724
4.67526046185698e-05
1.68671832525195e-05
0.000268383589676981
5.46379275303888e-05
-1.57784854844455e-05
0.000164251245884394
-0.000825088710408037
1.60333898498936e-08
0.00057583497925309
-0.00194553874354883
2.77584552821579e-05
-0.0019233153420995
6.8794393219749e-06
0.000142742807366002
4.78906954870341e-05
-3.09165591945621e-05
0.000360379887293296
-0.000323001629758985
1.91248682765446e-05
0.000386855215190067
-3.18121459886495e-05
1.52950085646124e-06
0.000393690598017188
0.000168654692831332
-1.47474717783605e-05
0.000410592661229863
0.000116931185291684
-7.14297499477653e-06
0.000478177844268979
2.86933194377166e-05
2.30054939148484e-06
0.000548902666596494
-3.5565260793705e-05
8.71997068710336e-06
0.000604240120151074
-3.0850483422511e-05
5.72672103718548e-06
0.000609276327590075
2.74393872010116e-05
-2.29685676882699e-06
0.000578019136822115
4.27913330740214e-05
-5.20111778156917e-06
0.000525177513924385
6.84108430482175e-05
1.07388484257408e-07
0.000362065133460133
2.68405890623383e-05
1.08710586685558e-05
0.0001520262936369
-0.000277558613431732
1.38265199814536e-06
0.000431778637264373
-0.00110017287922702
-2.07534169395377e-06
-0.00165050703299036
2.52245151570954e-05
0.000307383415601228
-0.000340580907281102
4.53725603809023e-05
0.000477798895070611
-0.0004767306059455
-9.93168911806883e-06
0.000516185241051533
-5.91730803893153e-05
-5.7267448181239e-06
0.000505383915973722
0.000173426821322845
2.76597570819128e-06
0.000469036948331695
0.000162303587645623
-4.07695577650733e-06
0.000494186259344765
1.35862131791135e-05
2.03665531170566e-06
0.000548985114819825
-8.45260182029189e-05
1.20513814186259e-07
0.000577631510860706
-5.93936331159903e-05
-3.11164492505352e-06
0.000574709631235554
6.82396418934207e-06
1.83726848489217e-06
0.000573370194696447
4.35034473263846e-05
-3.59701345592514e-06
0.000576889024586526
7.25349131300263e-05
-1.33908220899818e-06
0.00051161729287173
1.99624396511973e-05
-1.10314982528612e-06
0.00035757447795491
-8.10887847906066e-05
1.98381323695178e-05
0.000290340740185549
-0.00048744062376761
6.59760455143073e-06
-0.00105271582145015
1.97184889382494e-06
0.000371126339068546
5.8253471587287e-05
-0.000734934291191821
0.000281510931139769
-9.53011216637788e-06
-0.000368692187031273
0.000375069392145649
-1.41735497755564e-05
-0.000125641397689859
0.000474503802517457
-1.65502892169091e-05
0.000104183556914572
0.00047469942606273
3.73025890706258e-06
0.000151078786215137
0.000474840199576851
-2.44055908156621e-06
2.3969168881672e-05
0.000478149124101012
-1.34473790083571e-05
-5.87469646064389e-05
0.000483551048281817
-9.84425111134708e-06
-4.7275926087186e-05
0.000485482632309809
-2.76473406557353e-06
1.68420913630008e-06
0.000494098130574207
3.56938546298063e-06
2.48393266534371e-05
0.000508659779761062
7.516612986982e-06
3.37546457317536e-05
0.000491844278278163
4.07454538330581e-06
9.6775532497953e-06
0.000442330789151484
5.52830104626583e-06
-2.43987800410923e-05
0.000335332398241777
1.91460370297069e-06
-0.000122911355432485
-4.40051410816283e-06
-0.000508825566642665
5.41703708637107e-05
-3.58691428607272e-06
-1.07073826317291e-06
0.000220076672248423
-0.000167804822733104
-3.76752875775436e-06
0.000368686013583901
-7.54577198514728e-05
3.97395111931763e-06
0.000376743716828099
0.000162823285817968
2.55926430694988e-05
0.000372415585003514
0.000125137241217397
2.4320957683762e-05
0.000421528979761936
5.79000577139931e-05
1.80679524332513e-05
0.000507076439251283
4.63971711284162e-07
1.68398166716924e-05
0.00054754610913041
2.91104492188053e-05
1.92470311122257e-05
0.000534053447188387
9.96549267716156e-05
1.17319328248863e-05
0.000431722484748346
0.000113704743398087
-1.34473534724959e-05
0.000383789697959365
9.59746993418175e-05
-1.68674735817304e-05
0.000222795940821547
-1.97357178139837e-05
1.57784590001958e-05
0.000155283429154944
-0.000868701533986466
-1.62109198497632e-08
0.000590631867620087
-0.00188118154622546
-2.77579694344144e-05
-0.0020907525729544
-6.87950046783167e-06
0.000260436978197475
-0.000279539639799044
3.09164095239697e-05
0.000490142193737083
-0.000352370855161069
-1.91249053482267e-05
0.000484101543851747
-6.29443485957038e-05
-1.52961598200404e-06
0.000467794668811978
0.000151337338399067
1.47474677055715e-05
0.000469892979396949
0.000118260446548017
7.14304405682452e-06
0.000532035633816537
2.50768820915054e-05
-2.30058328649707e-06
0.000591732771013553
-2.1381808510854e-05
-8.72030222946225e-06
0.000621396173111012
3.97072791074866e-06
-5.72682081983799e-06
0.000618334329879309
4.76335084234242e-05
2.29695928353744e-06
0.000586359219021772
6.3294915454686e-05
5.20087973454345e-06
0.000535328022244537
5.06917076787324e-05
-1.08897108532527e-07