/*--------------------------------*- C++ -*----------------------------------*\
  =========                 |
  \\      /  F ield         | OpenFOAM: The Open Source CFD Toolbox
   \\    /   O peration     | Website:  https://openfoam.org
    \\  /    A nd           | Version:  11
     \\/     M anipulation  |
\*---------------------------------------------------------------------------*/
FoamFile
{
    format      ascii;
    class       volScalarField;
    location    "0.0001000042";
    object      rho;
}
// * * * * * * * * * * * * * * * * * * * * * * * * * * * * * * * * * * * * * //

dimensions      [1 -3 0 0 0 0 0];

internalField   nonuniform List<scalar> 
900
(
1.42010651953229
1.42162997696067
1.42154091846133
1.42008608621307
1.42161925716507
1.42153122810486
1.42008700363852
1.42162134286924
1.42152838677339
1.4201058687147
1.42162179239139
1.42152886730256
1.42008534037897
1.42161265059939
1.42152222778686
1.42008658813227
1.42161823170501
1.42152892040175
1.42010652281381
1.42162998015128
1.42154092484576
1.42008608713864
1.42161925909469
1.42153123341175
1.4200870052289
1.42162134434569
1.42152839039312
1.42010579910559
1.4216216936985
1.42152872729554
1.42008531332912
1.4216125915155
1.42152213754327
1.42008656389922
1.42161819794588
1.42152888591123
1.42010645866486
1.42162989782592
1.42154080505073
1.4200860601071
1.42161921284169
1.42153114693778
1.42008698009263
1.42162131389858
1.42152833225239
1.42010579486524
1.42162168805195
1.42152871779543
1.4200853121059
1.42161258834301
1.42152213158618
1.42008656228755
1.4216181961079
1.42152888358027
1.41706442327734
1.4043283666657
1.38617262919201
1.41706606205243
1.40433444442576
1.38617558707954
1.41706262080995
1.40433256124176
1.38617829994375
1.41705534839932
1.40432379828335
1.38617473997176
1.41705649526732
1.40432791305185
1.38617796041774
1.41706597112635
1.40433350692408
1.38617809816875
1.41706444198635
1.40432837518237
1.38617272967618
1.41706607607996
1.40433445195955
1.38617568988595
1.41706262191941
1.40433256312472
1.38617832699806
1.41705498744451
1.4043233400711
1.3861738024126
1.41705630708507
1.40432763792779
1.3861776384365
1.41706591423532
1.40433324946667
1.38617710947256
1.41706406196234
1.40432761593247
1.38617142433143
1.41706579952901
1.40433393106597
1.38617419793862
1.41706256593573
1.40433235052573
1.38617794327372
1.41705496133203
1.40432332624141
1.38617370888715
1.41705629804123
1.40432762659421
1.38617759183594
1.4170659126773
1.40433323619028
1.38617701326593
1.36608615804618
1.36609530149951
1.36609709574277
1.36608641666645
1.36609457712518
1.36609617562604
1.36608622479863
1.36609534531658
1.3660971306719
1.36608409993924
1.36609295290288
1.36609586126848
1.36608580854197
1.36609525959453
1.36609697589885
1.36608386579115
1.3660927395784
1.36609580925751
1.34488010806694
1.34487800308932
1.34487759264803
1.34487870158607
1.34487910673323
1.34487834810412
1.34488012880278
1.34487801445261
1.34487759855084
1.34487818581402
1.34487837477128
1.34487812883423
1.34487969357697
1.34487782195014
1.34487755042658
1.34487814220337
1.34487830604681
1.34487811904903
1.32238350102824
1.32239363948725
1.32239304360784
1.32238187310103
1.3223885759014
1.32239133579464
1.32238352096151
1.32239364062939
1.3223930633463
1.32238065945835
1.32238767956525
1.32239097311336
1.32238329160826
1.32239362030456
1.32239288243002
1.32238051161127
1.32238758296971
1.3223909410802
1.29798359712619
1.29797580907249
1.29797713948088
1.29798713059273
1.29798289311442
1.29797906186415
1.29798361430343
1.29797581563221
1.29797715158535
1.29798652483253
1.2979824199778
1.29797895913829
1.29798335789872
1.29797570766704
1.2979770453401
1.29798646453804
1.29798237399251
1.29797895418873
1.27177156764048
1.27178479820512
1.27178250141955
1.27176859519171
1.27177682188363
1.27177942730056
1.27177159223466
1.27178481283635
1.27178251605114
1.27176774183559
1.27177631926113
1.27177932331437
1.27177135323736
1.27178469338179
1.27178240615723
1.27176761453237
1.27177624123936
1.2717793056591
1.23986153181503
1.23983746003326
1.23982799895498
1.2398695861864
1.23984897653672
1.23983125519667
1.23986154619134
1.23983745948654
1.23982799911706
1.23986914021319
1.23984865290958
1.2398313345908
1.23986137879572
1.23983742454874
1.23982797745732
1.23986909717042
1.23984862389662
1.23983134985865
1.20560270921431
1.20555501996795
1.20552932785114
1.205582182675
1.20554459878131
1.20552729482659
1.20560274867917
1.20555503907632
1.20552934617317
1.20558203947684
1.20554454867877
1.20552726421213
1.20560243032649
1.2055548596676
1.20552921002881
1.20558202933035
1.20554454692162
1.20552725962257
1.1611422197358
1.16120425355251
1.16128466692455
1.16118393047249
1.16123440569994
1.16129072544524
1.16114223411079
1.16120426257676
1.16128468041075
1.16118376941344
1.16123422520223
1.16129067398515
1.16114209613249
1.16120416854738
1.1612845679891
1.16118375078921
1.16123420430094
1.16129066906837
1.41867526605327
1.41866344388836
1.41867178649155
1.4186748229504
1.41866379645253
1.41867157142304
1.41867526637214
1.41866344451329
1.41867178713785
1.41867482143927
1.41866379360591
1.4186715634598
1.41867526260796
1.41866343764578
1.41867177977384
1.41867482133167
1.41866379340119
1.4186715626746
0.293843147172727
0.390408294945087
0.50879949183408
0.652863678109675
0.779714957536575
0.850894587081482
0.860507312971393
0.828959188758152
0.748188715686271
0.64989684946974
0.55611877111939
0.502673455747552
0.593735949196473
1.12865924632751
1.35556286279485
0.297035115664636
0.241798822851012
0.267599746875773
0.330857234138756
0.420025516597854
0.48937561344478
0.488427989311589
0.465797638826616
0.428175029436587
0.395652993383992
0.37490331275014
0.355998752572564
0.356425271058059
0.717889434829703
1.21863540905349
0.269124116760828
0.149360487604385
0.177201365554074
0.229045426670716
0.264763509730568
0.295643028271917
0.299864359242089
0.295650830967343
0.280767718498293
0.279263214642936
0.291666166883142
0.264511941075049
0.231425277247059
0.467147129474799
1.15390828344985
0.203343733082201
0.0820690472772779
0.098892406786044
0.171278459285548
0.231126780537998
0.257265584960112
0.244042628446645
0.229328531241742
0.218903103141519
0.225047478464368
0.238104558376258
0.221725071105543
0.207602067567553
0.346606422289545
0.947838083970374
0.380963214690031
0.357960038785076
0.467414252597736
0.599798655317628
0.727933422285121
0.812769864553914
0.840140304146012
0.848652044152119
0.816916433139323
0.726276495436404
0.594264953318609
0.482639792875536
0.576257593339558
1.13380482848246
1.38733506455477
0.405001416304065
0.320669400786924
0.27742741076798
0.314183061403721
0.39738441613899
0.464842970704556
0.481545743557934
0.486689903826304
0.477401052205465
0.444624520597355
0.386094499533841
0.347849497247744
0.349360826730026
0.706570133066717
1.27329197899396
0.358549166319332
0.212789149748367
0.218362342580819
0.229724772373906
0.264231610907155
0.293434153249909
0.300063946133804
0.303394736239654
0.30056031462958
0.293010339833396
0.286764137480922
0.254807953235714
0.24041263237439
0.474317491651642
1.20562154381745
0.272489870688651
0.12711612193501
0.137410557391123
0.186478207911347
0.236596172486546
0.259446343243205
0.238605976834954
0.224793659612108
0.228849237858656
0.228293143922627
0.231981002036199
0.217276005090754
0.213880746417924
0.36672750127605
0.992003771583407
0.293843140737135
0.390408277976368
0.50879942016683
0.652863563463304
0.77971491692291
0.850894630636598
0.860507407691882
0.828959334480864
0.748188926009922
0.6498969864656
0.556118854845358
0.502673491349326
0.593735926660752
1.12865919568687
1.3555628458298
0.297035081162797
0.241798757763504
0.267599726116625
0.330857222388873
0.420025515588052
0.489375622404852
0.488428060936114
0.465797777012894
0.428175184843371
0.39565311604391
0.374903400763576
0.355998779607121
0.356425260768568
0.717889421041918
1.21863541181574
0.269124019644073
0.149360477865736
0.177201342873483
0.229045412409777
0.264763509948317
0.295643030925071
0.299864393773398
0.295650910250675
0.280767816963097
0.279263330744377
0.291666239552888
0.264511958133134
0.231425283518011
0.467147132463751
1.15390824354058
0.203343655039091
0.0820690529983417
0.0988924125415457
0.171278447753554
0.23112677903936
0.257265573610536
0.244042617195274
0.229328555229997
0.218903154250563
0.22504754514586
0.238104613969116
0.221725096312033
0.207602078658457
0.346606419666326
0.947838041087528
0.380963948093787
0.357960289642118
0.467414017727556
0.59979850669344
0.72793285120037
0.81276925350316
0.840139577267851
0.848651442985417
0.816915124598789
0.726276123212644
0.594264875645474
0.482639662587332
0.576257457060032
1.13380480101556
1.38733533027096
0.405002213784329
0.320669681034762
0.277427348021849
0.314182847247025
0.397383946274231
0.464842776280752
0.481545211807227
0.486689033560999
0.477399933395724
0.444623620569264
0.386093979379663
0.347849524612342
0.349360863185221
0.7065701588481
1.27329164941341
0.358549344950315
0.212789266749817
0.218362355729416
0.229724768755102
0.264231330057433
0.293434165744628
0.300063708065244
0.303394017777432
0.300559568178046
0.293009519779451
0.286763649360832
0.254808008073594
0.240412742641961
0.47431754711771
1.20562150492277
0.272490079831167
0.127116122853898
0.13741043830993
0.186478214270882
0.236595918289334
0.259446478121587
0.238606080277902
0.224793387724455
0.228848903236164
0.228292706251474
0.231980634363718
0.217275916130135
0.213880808513077
0.366727714397755
0.992004183350676
0.293843184853347
0.390408395796291
0.508799880966465
0.652864332509425
0.779715083305004
0.850893968533313
0.860506261108926
0.828957701932938
0.748186777248417
0.649895526347146
0.556117985481641
0.502673115992477
0.593736225867924
1.12865983943137
1.35556305474045
0.297035305537924
0.241799186518681
0.267599849875344
0.330857297834327
0.420025485096033
0.489375386233179
0.488427190087699
0.465796298596624
0.428173581823032
0.395651814581096
0.374902442573242
0.355998435278686
0.356425349948207
0.717889546547958
1.21863548493989
0.269124637068856
0.149360520067942
0.177201476349257
0.229045482199549
0.264763486364468
0.295642949946547
0.299863987467312
0.295650093010221
0.280766838170626
0.279262161375595
0.291665464823194
0.264511724486047
0.231425183725516
0.46714707758866
1.15390872582329
0.203344185873879
0.0820690025687836
0.0988923594633702
0.171278509896587
0.231126766626111
0.257265618087354
0.244042654767523
0.229328272817124
0.218902659251127
0.225046895959203
0.23810404298485
0.221724806784527
0.207601946169757
0.346606439708216
0.947838529906262
0.380964066407277
0.357960327566047
0.467413975589751
0.599798498403482
0.727932798525092
0.812769205697986
0.840139513630884
0.84865138717998
0.816915002264092
0.726276092292861
0.594264878195848
0.482639657421132
0.576257444728094
1.13380479209061
1.38733534824473
0.405002343990471
0.320669727106725
0.277427336132475
0.314182815489114
0.397383883902961
0.464842771082326
0.481545169371503
0.486688947087843
0.4773998223878
0.444623535176491
0.386093934081985
0.347849530550335
0.349360866707733
0.706570161668577
1.27329161649158
0.358549396139017
0.212789287459018
0.218362354418737
0.229724773042631
0.264231289770085
0.293434178905952
0.300063692675687
0.303393939027186
0.300559489373812
0.293009435782043
0.286763601765001
0.254808015005021
0.240412751222317
0.474317551564363
1.2056214959997
0.272490136642887
0.12711612227877
0.137410412373158
0.186478214900296
0.236595881233426
0.259446505595286
0.238606102583796
0.224793359763558
0.228848865421923
0.228292658451751
0.231980595033322
0.217275907933931
0.213880814002364
0.366727732536839
0.99200421995949
0.459596920999561
0.164099641597041
0.0826577397973757
0.131178635053758
0.217288729163321
0.267809372543372
0.245564993948701
0.210807529571157
0.19387497295686
0.203650263933123
0.20995582157384
0.202413926094853
0.19784773927766
0.272264346944889
0.790902319121427
0.61267155055786
0.239268418103441
0.090877443685491
0.112902908473954
0.221193962621755
0.28559344414951
0.260705228715129
0.214613203094906
0.190030028381498
0.196502102606858
0.203830108799882
0.198217165704524
0.19721544895951
0.252676507868137
0.711132788897645
0.715283919110575
0.316980317397895
0.106567507096552
0.111888311188729
0.245211640133805
0.303511564660181
0.269205799602247
0.216958474342815
0.18833367989987
0.193026697818314
0.202968804664306
0.198190465333947
0.199068186371175
0.254575558140009
0.709868324883688
0.534548546277511
0.233495180232402
0.106488861996738
0.152867887428157
0.223761423349773
0.271796686354715
0.238294243263476
0.202518999414672
0.197267224279461
0.204872401523068
0.208346195491201
0.19990216934605
0.201466667607432
0.298872289556129
0.815960974377757
0.671440365354443
0.306290287437853
0.115841080809265
0.131362819146224
0.224447958609545
0.288226209497868
0.251861422326837
0.204886246596326
0.187562916538801
0.197537814314659
0.203719600394708
0.196561400251552
0.199317128451852
0.270472166560176
0.757403286528203
0.729502035885528
0.349655603310131
0.11923245000174
0.117147384717527
0.244247413673419
0.303732755765167
0.271811638486278
0.211262898417402
0.186747097901711
0.193345224377822
0.203037792205198
0.197594146329384
0.200285805338675
0.260064504591471
0.708811694867851
0.459596792643839
0.164099568105629
0.0826577352902132
0.131178633504254
0.217288730696196
0.267809355422214
0.245564965365355
0.210807519852839
0.193874995426145
0.203650309631581
0.209955858039523
0.202413931233382
0.197847726011643
0.272264322184052
0.790902274770045
0.612671456433682
0.239268350276935
0.0908774394495411
0.112902932446067
0.221193945678979
0.285593411139595
0.260705192571109
0.21461318516372
0.190030037747894
0.196502127180895
0.203830125816559
0.198217166874091
0.197215424303137
0.252676472266251
0.71113273323162
0.715283883151008
0.316980281437004
0.10656750082016
0.111888269979292
0.245211635919981
0.303511573530047
0.269205769771768
0.216958452855982
0.188333681386795
0.193026705313799
0.20296880654943
0.198190464297256
0.19906816939048
0.254575540673003
0.709868313540607
0.534549145775016
0.233495596084948
0.10648887359556
0.152867896895443
0.223761322867281
0.271796762016644
0.23829442434529
0.20251896917652
0.197266962852862
0.204871978734584
0.208345931506805
0.199902136865416
0.20146677558582
0.298872551982491
0.815961565376246
0.671440761477991
0.306290666133896
0.115841142673802
0.131362788509303
0.224448056244666
0.288226286055608
0.251861700019273
0.204886328203457
0.187562809165526
0.197537576957073
0.20371947355266
0.196561462462616
0.199317299020318
0.270472469719895
0.757403573476219
0.729502156023856
0.349655795451715
0.119232491909322
0.117147405050605
0.24424745069837
0.303732661770673
0.271811802164241
0.211262981653452
0.186747079548433
0.193345153949597
0.203037769357701
0.197594189602114
0.200285958619526
0.260064655736595
0.708811785172319
0.459597670289984
0.164100067821071
0.0826577620962864
0.131178638152551
0.217288694647268
0.267809444096034
0.24556515502162
0.210807554046497
0.193874776043981
0.203649895857796
0.209955503458718
0.202413875088381
0.197847852603449
0.272264588852678
0.790902784901411
0.612672093917374
0.239268813425888
0.090877470103968
0.112902757564025
0.221194027802117
0.285593623296765
0.260705443609684
0.21461328779014
0.19002993601602
0.19650190902977
0.20382996998637
0.198217164991506
0.197215686053902
0.252676856865963
0.711133381118484
0.715284120596851
0.316980525607085
0.106567547403236
0.111888572834632
0.245211635599321
0.303511507448831
0.269205989631276
0.216958598756404
0.188333660973148
0.193026642786768
0.202968789777048
0.198190487875155
0.199068358686339
0.254575731645428
0.709868441143869
0.534549255778989
0.233495667635868
0.106488873033152
0.152867897644298
0.223761310068447
0.271796778494096
0.238294456298301
0.2025189702764
0.197266931169591
0.204871924046078
0.208345900200496
0.199902134439262
0.201466787580101
0.298872576428105
0.815961623882622
0.671440833030448
0.306290732335885
0.115841151241956
0.131362782563518
0.224448078091422
0.288226301240242
0.251861743775967
0.20488634455917
0.187562796586437
0.197537545387263
0.203719457373378
0.196561468305861
0.199317316365787
0.270472500424373
0.757403602654753
0.729502178231324
0.3496558289106
0.119232497709947
0.117147407595827
0.24424746279496
0.303732646890821
0.271811827159486
0.211262996388409
0.186747077893501
0.19334514462696
0.203037766602874
0.197594192845149
0.200285973309099
0.260064670870992
0.708811794459554
)
;

boundaryField
{
    inlet
    {
        type            calculated;
        value           nonuniform List<scalar> 
24
(
1.41862963659159
1.41862963659159
1.41862963659159
1.41862963659159
1.41862963659159
1.41862963659159
1.41862963659159
1.41862963659159
1.41862963659159
1.41862963659159
1.41862963659159
1.41862963659159
1.41862963659159
1.41862963659159
1.41862963659159
1.41862963659159
1.41862963659159
1.41862963659159
1.41862963659159
1.41862963659159
1.41862963659159
1.41862963659159
1.41862963659159
1.41862963659159
)
;
    }
    outlet
    {
        type            calculated;
        value           nonuniform List<scalar> 
156
(
0.490520629214512
0.976286899379495
1.15296844475564
1.17530560429535
1.16475114972171
1.16281606441124
1.17988581903051
1.1720102906035
1.12878171648442
1.09104447146356
1.07558680884648
0.523497452933524
0.664820257370287
0.915261259951932
1.10158746141376
0.675526860175025
0.371810055325667
1.2093573409908
1.18146856871694
1.15366738821937
1.15863972648409
1.16188696828129
1.1590212929537
1.12188148759985
1.06677426181114
1.03705684943122
0.515483051016304
0.639667471331167
0.88906329962732
1.09569021842888
0.490520567556826
0.976286343006181
1.15296806754321
1.17530527298064
1.16475107420594
1.16281608242967
1.17988583688349
1.17201030119746
1.12878178710851
1.09104448959643
1.07558680421645
0.523497505632973
0.664820312411962
0.915261282081601
1.10158745967077
0.675528420884708
0.371810075427746
1.2093585732557
1.18147016202555
1.15366747141492
1.15863948951043
1.16188704139656
1.15902179229986
1.12188077969719
1.0667743416073
1.03705696498653
0.515482832741721
0.639667065433619
0.889063037960437
1.09569020805385
0.490520970766435
0.976290084559463
1.15297061363416
1.17530749598381
1.16475148843809
1.16281576844368
1.17988559877874
1.17201015844546
1.12878116778757
1.09104429840256
1.0755868779106
0.523496960498112
0.664819760798262
0.915261053941176
1.10158746815598
0.675528675722341
0.371810074030031
1.20935878849644
1.18147044997657
1.15366750564677
1.15863947425085
1.16188706396137
1.15902186001271
1.12188072332776
1.06677434664232
1.03705697120785
0.515482820290492
0.639667034124922
0.889063015811405
1.09569020756565
1.13200771348463
0.991636429144649
0.756100559799942
0.515578159758768
0.384667653532969
0.328165655406076
0.299678921889693
1.13396795260176
0.973685121537864
0.75533501165027
0.521842864888026
0.385410490987574
0.321594191124771
0.298700430712618
1.13200771804725
0.991636434373096
0.756100578766838
0.515578174999488
0.384667658683302
0.328165654881689
0.299678921268973
1.13396790796915
0.97368512149991
0.755335058788908
0.521842964457229
0.385410531559239
0.321594208808585
0.298700419653094
1.13200767360954
0.991636343961514
0.756100341414994
0.515577990896113
0.384667599851539
0.328165661264687
0.299678929200253
1.13396790294584
0.973685120781845
0.755335061183862
0.521842970416018
0.385410533098671
0.321594209622963
0.298700418374432
0.742029220384774
0.548876610008787
0.413126097896261
0.50326757601888
0.84457272451553
0.711143910211103
0.668988245916709
0.83457390931799
0.742028993065009
0.548876615954363
0.413125883497106
0.503267441920958
0.844572579351968
0.711145364343645
0.668989095814126
0.834574743917045
0.742030502062239
0.54887657342649
0.41312723079973
0.50326833068934
0.84457257148698
0.711145609600857
0.668989234588586
0.834574916521709
)
;
    }
    sides
    {
        type            calculated;
        value           nonuniform List<scalar> 
84
(
1.42010651953229
1.42162997696067
1.42154091846133
1.4201058687147
1.42162179239139
1.42152886730256
1.42010652281381
1.42162998015128
1.42154092484576
1.42010579910559
1.4216216936985
1.42152872729554
1.42010645866486
1.42162989782592
1.42154080505073
1.42010579486524
1.42162168805195
1.42152871779543
1.41706442327734
1.4043283666657
1.38617262919201
1.41705534839932
1.40432379828335
1.38617473997176
1.41706444198635
1.40432837518237
1.38617272967618
1.41705498744451
1.4043233400711
1.3861738024126
1.41706406196234
1.40432761593247
1.38617142433143
1.41705496133203
1.40432332624141
1.38617370888715
1.36608615804618
1.36608641666645
1.36608622479863
1.36608409993924
1.36608580854197
1.36608386579115
1.34488010806694
1.34487870158607
1.34488012880278
1.34487818581402
1.34487969357697
1.34487814220337
1.32238350102824
1.32238187310103
1.32238352096151
1.32238065945835
1.32238329160826
1.32238051161127
1.29798359712619
1.29798713059273
1.29798361430343
1.29798652483253
1.29798335789872
1.29798646453804
1.27177156764048
1.27176859519171
1.27177159223466
1.27176774183559
1.27177135323736
1.27176761453237
1.23986153181503
1.2398695861864
1.23986154619134
1.23986914021319
1.23986137879572
1.23986909717042
1.20560270921431
1.205582182675
1.20560274867917
1.20558203947684
1.20560243032649
1.20558202933035
1.1611422197358
1.16118393047249
1.16114223411079
1.16118376941344
1.16114209613249
1.16118375078921
)
;
    }
}


// ************************************************************************* //
