/*--------------------------------*- C++ -*----------------------------------*\
  =========                 |
  \\      /  F ield         | OpenFOAM: The Open Source CFD Toolbox
   \\    /   O peration     | Website:  https://openfoam.org
    \\  /    A nd           | Version:  11
     \\/     M anipulation  |
\*---------------------------------------------------------------------------*/
FoamFile
{
    format      ascii;
    class       volScalarField;
    location    "0.0001000042";
    object      T;
}
// * * * * * * * * * * * * * * * * * * * * * * * * * * * * * * * * * * * * * //

dimensions      [0 0 0 1 0 0 0];

internalField   nonuniform List<scalar> 
900
(
1900.58237020907
1901.1826330763
1901.14786340239
1900.57434115094
1901.17845775274
1901.14404869188
1900.57471397082
1901.17930852875
1901.14294211295
1900.58211448763
1901.17942496448
1901.14312145391
1900.57404868104
1901.17586503266
1901.14050776577
1900.5745498496
1901.17808308636
1901.14315087709
1900.58237150356
1901.18263433217
1901.14786591441
1900.57434151935
1901.17845851423
1901.14405078101
1900.57471458346
1901.17930911136
1901.14294353763
1900.58208703414
1901.17938605319
1901.14306633163
1900.57403801164
1901.17584169965
1901.14047217535
1900.57454025617
1901.1780696602
1901.14313715277
1900.58234622209
1901.18260201112
1901.14781881941
1900.57433088914
1901.17844025225
1901.14401672323
1900.57470461406
1901.17929692142
1901.14292050414
1900.58208536248
1901.17938382903
1901.14306259134
1900.57403752896
1901.17584044823
1901.140469828
1900.57453961997
1901.17806893406
1901.14313623263
1899.38295998332
1894.33298396755
1887.06582595061
1899.38361135841
1894.33540837093
1887.06701509255
1899.38226072073
1894.33467091136
1887.06810935559
1899.37937697395
1894.33116543596
1887.06667477197
1899.37983397879
1894.33280872213
1887.06796922732
1899.38358277436
1894.33504788376
1887.06802883601
1899.38296737607
1894.33298732455
1887.06586640293
1899.38361690337
1894.33541134402
1887.06705647665
1899.38226114625
1894.33467166266
1887.06812053125
1899.37923419193
1894.3309828675
1887.06629746525
1899.37975965102
1894.33269919335
1887.06783983206
1899.38356048223
1894.33494586101
1887.06763036379
1899.38281733599
1894.33268502617
1887.06534066222
1899.38350784377
1894.33520405283
1887.06645564981
1899.38223920404
1894.334587482
1887.0679653998
1899.3792238794
1894.33097736006
1887.06625983231
1899.37975605171
1894.33269467105
1887.06782110002
1899.38355986826
1894.33494062943
1887.06759159372
1878.93289668378
1878.93668680499
1878.9374734661
1878.93299356234
1878.93638264186
1878.93709452355
1878.93292372142
1878.93670453903
1878.93748784362
1878.93205021871
1878.93572016977
1878.93696518442
1878.9327549192
1878.93667064146
1878.93742322465
1878.93195476283
1878.93563312484
1878.9369437695
1870.2365307695
1870.23575804062
1870.23565869179
1870.23596731822
1870.23620869568
1870.23594969976
1870.23654019368
1870.2357628596
1870.23566052118
1870.23575680154
1870.23591343589
1870.23587388706
1870.23635390255
1870.23568256029
1870.23564184292
1870.23573851471
1870.2358855049
1870.23587121346
1860.88420574145
1860.88852487034
1860.8883890745
1860.88350836161
1860.88638762812
1860.88766210758
1860.88421427852
1860.88852515688
1860.88839813544
1860.88300268186
1860.88601285909
1860.88750904248
1860.88411661723
1860.88851784188
1860.88831666071
1860.88294111383
1860.88597211176
1860.88749532859
1850.58900113155
1850.58572754763
1850.58635774572
1850.5904796803
1850.58870994728
1850.58718534451
1850.58900826246
1850.58573016561
1850.58636260576
1850.59022303585
1850.58850879285
1850.58713851534
1850.58890067983
1850.5856851375
1850.58631468829
1850.59019753892
1850.58848921327
1850.58713488013
1839.34239790138
1839.34818832627
1839.34719062976
1839.34105003337
1839.34470208153
1839.34585693024
1839.34240844066
1839.34819456775
1839.34719692059
1839.34067972926
1839.34448903857
1839.34581170522
1839.34230575853
1839.34814392714
1839.34714864614
1839.3406247745
1839.34445539145
1839.34580391877
1825.43559578158
1825.42596051703
1825.42253244073
1825.43948415684
1825.43106208382
1825.42393673393
1825.43560231809
1825.42596044437
1825.42253245735
1825.43928921259
1825.43091882136
1825.42397082944
1825.43552639519
1825.42594322733
1825.42252295042
1825.43927033698
1825.43090589357
1825.42397746706
1810.08208080822
1810.06271904863
1810.05403221285
1810.07215341479
1810.05773505082
1810.05309695114
1810.08209814473
1810.06272735152
1810.0540401827
1810.07208832681
1810.05771023077
1810.05308646554
1810.08195688443
1810.06264779315
1810.05398130607
1810.07208387038
1810.05770906851
1810.05308491714
1789.71485461654
1789.74096035248
1789.78232815729
1789.73544806311
1789.75683604588
1789.78521758574
1789.71486071035
1789.74096422137
1789.78233431753
1789.73537328019
1789.75675096478
1789.78519551202
1789.71480022785
1789.74092294605
1789.78228362804
1789.73536470124
1789.75674093671
1789.78519339342
1900.01788522134
1900.01322702206
1900.016518528
1900.01771036864
1900.01336596287
1900.01643370111
1900.01788534728
1900.01322726869
1900.01651878281
1900.01770976982
1900.01336484031
1900.01643056142
1900.01788385949
1900.01322455826
1900.01651587905
1900.0177097272
1900.01336475961
1900.01643025181
493.381908578856
744.486031736907
685.936984393757
546.227571897826
452.734554063798
414.42593425664
420.051892045963
431.569147759735
450.5750196895
492.298965988271
560.195592561087
637.078779665865
512.961735148678
377.882799887228
317.82269175874
459.536797484879
1115.24190846085
1295.68618941204
1114.88875068269
912.285238685303
787.853107533718
786.432636067118
792.811465795605
807.589882949553
847.40989186921
865.294380681405
803.74385331122
777.355577302904
596.178315238779
355.252547393813
409.781049936015
1115.87943498702
1506.15837391793
1473.79694010847
1351.53589427855
1215.62410845245
1197.33781118478
1180.48498353021
1149.30705350592
1135.26219182385
1101.72704785981
1040.99484597868
1074.34023916321
932.317580784921
477.696854284451
636.94930945646
828.003437956456
1159.1577856797
1536.768739212
1584.37636572831
1546.70336409535
1494.07651088569
1447.90990526869
1398.68461764696
1371.53058622765
1327.51451371476
1262.34595513646
1304.06193868074
1287.1782264686
683.150406388953
526.139578044578
890.510737498931
816.076535060719
601.678330061724
478.708946688779
432.213470088193
420.78038719056
414.608822348316
408.77290388567
427.727378758782
501.246982226045
635.494808235975
533.626355632345
389.856429806305
320.319155453552
499.166395027657
1053.10019167088
1272.91671353234
1128.00496146471
948.410789556487
828.768031115078
784.497142756886
758.995769505515
730.635003639852
742.240163160212
796.857711195656
817.480904500697
814.830000123699
612.954252517609
364.642424423619
512.183551551974
1185.48822348774
1412.73771347306
1392.30932039363
1331.28865313925
1232.41710577015
1182.78231285632
1147.19799211115
1092.32895350497
1060.3806576569
1054.07596231122
1049.67932582133
1118.14316993196
944.984460613572
478.110299732384
891.061428381113
1039.15126253703
1240.8389136728
1436.15226551221
1539.90014977507
1522.64435748172
1464.45901726444
1426.46828156915
1386.55461193522
1348.32684934894
1314.65539743263
1272.7220248753
1331.59005497536
1289.16497472062
672.870313739724
493.381818645623
744.485744692835
685.936695037508
546.227451488394
452.734534270036
414.425922835843
420.051855320724
431.569076317502
450.574937572247
492.298877788194
560.195510895005
637.078703423141
512.961692220213
377.882787912307
317.822690561506
459.536789918827
1115.2417519166
1295.68588000312
1114.88853670615
912.285181926458
787.853079304588
786.432513926549
792.811264062588
807.589641897084
847.409648432349
865.294162658458
803.743729068042
777.35549938018
596.178268327374
355.252545258627
409.781085685543
1115.87954706001
1506.15821359527
1473.79681601985
1351.53584366949
1215.62410765591
1197.33766158768
1180.48478108054
1149.30678921123
1135.26193035929
1101.7267497461
1040.99460676324
1074.34008070515
932.317471268074
477.69683801671
636.949346385124
828.003636559166
1159.15793501557
1536.76869941138
1584.37637305578
1546.70334556339
1494.07643167571
1447.9098295825
1398.68449558803
1371.53041873955
1327.51428456898
1262.34570743411
1304.06177163015
1287.17809123623
683.15038557776
526.139613105628
890.511683447845
816.078724895865
601.679725946423
478.709374588878
432.213640003082
420.780792088414
414.60941867522
408.77315264458
427.727620173068
501.24709255231
635.495140052616
533.626691129158
389.856559514041
320.319177092866
499.166360020267
1053.10101580438
1272.91780524364
1128.00634978136
948.411650134026
828.768784867935
784.498467221395
758.997639371347
730.636524192744
742.241521836625
796.858604500531
817.481555361603
814.830558296351
612.95457564848
364.642403197175
512.183851164994
1185.48900580271
1412.73778256688
1392.30963072231
1331.2891085713
1232.41792273478
1182.78373619702
1147.20004033401
1092.3311364406
1060.38280978539
1054.07777443141
1049.68088996088
1118.14430138348
944.985146506483
478.110250378362
891.061688008882
1039.15120378541
1240.83816566573
1436.15216201691
1539.89991143983
1522.64466410531
1464.4598806607
1426.46920290374
1386.55601453618
1348.3284368271
1314.65704166456
1272.7237768019
1331.59154977927
1289.16596865756
672.870189733848
493.382407742069
744.487655406911
685.938682778465
546.228266443402
452.734676367379
414.426074523319
420.052285245388
431.569857239119
450.575841166658
492.299822896406
560.196381303504
637.079490274911
512.96212404988
377.882914895536
317.822706163718
459.536841211979
1115.24276498779
1295.68798747027
1114.88997780237
912.285587953708
787.853431603588
786.433831362976
792.813394457284
807.592167990992
847.412216687093
865.296521262767
803.745086848852
777.356370346717
596.178796470371
355.252585840246
409.780829800986
1115.87871966126
1506.15926470125
1473.79758662821
1351.5361586094
1215.62413537808
1197.33917178449
1180.4868557034
1149.30947310836
1135.26467208568
1101.72996378046
1040.99723678359
1074.34187636719
932.318716883018
477.697035377058
636.94904980992
828.002170947572
1159.15680474683
1536.76886423203
1584.37623899316
1546.70345984399
1494.07713141067
1447.91054677047
1398.68572112482
1371.53216537653
1327.51674378978
1262.34841714648
1304.06366558538
1287.1796292289
683.15063229289
526.139623617744
890.511854510783
816.079107808018
601.679958648632
478.709430820891
432.213654651413
420.780837215447
414.609486780426
408.773181442977
427.727639053136
501.247092159661
635.495159967985
533.626716907412
389.85657036258
320.319178802708
499.16635847043
1053.10116285576
1272.91800678703
1128.00658921534
948.411771563509
828.768874660585
784.498615191207
758.997847962888
730.636686211106
742.241652100388
796.85867506214
817.481605817144
814.830604577085
612.95460471881
364.642401487034
512.183868811578
1185.48912912658
1412.73779874313
1392.30970545384
1331.28918750128
1232.41804060293
1182.7839005265
1147.20026451236
1092.33137026618
1060.38302312997
1054.07794034024
1049.68103180425
1118.14440207078
944.985211386725
478.110247160304
891.061698658395
1039.15118644239
1240.8380121748
1436.15216786972
1539.89989145645
1522.64471785094
1464.45999365595
1426.46930735769
1386.55616658235
1348.32860037389
1314.65720023317
1272.72394418204
1331.59168916753
1289.16606773785
672.870182867066
1422.58601315324
949.153607084703
845.354999248091
1309.0097240595
1579.69134567233
1662.73245934086
1600.00842920544
1518.72226835975
1472.13371779866
1483.29980751375
1468.92180270898
1421.6578080155
1432.69627268637
1555.59078046107
903.554867051695
1475.0433781304
1063.59762024654
823.71771863256
998.594263136824
1477.13696093507
1647.31517622702
1601.9625583524
1515.78422430105
1468.37727528288
1483.92539443337
1501.60150714735
1482.33447839378
1485.62946641409
1660.16426752368
1050.01847378368
1529.70600338714
1162.09046873979
866.933931933278
890.863561681326
1395.86778548892
1617.5329051012
1578.50483610404
1491.93920717746
1454.33580855378
1475.55371981921
1507.41947172238
1498.424172653
1507.08917082336
1722.61908027106
1144.4674179938
1478.96552772551
1103.11213001822
966.338616201769
1289.79933782905
1524.62357330345
1644.77808199768
1578.95424781068
1499.23646580648
1477.54423385713
1484.74895764434
1471.93391887977
1424.03369355171
1449.07359200343
1577.1960280846
900.327569656191
1518.31266582173
1168.83155587128
912.842197856067
1062.32041327271
1451.17031816881
1636.68334590939
1582.40441021306
1490.3473517667
1462.40609200463
1486.99681260028
1502.4888575521
1478.72558269565
1494.10595723616
1698.22572028538
1067.38605892356
1539.34851819013
1201.01877957858
904.764640565959
913.310054713826
1393.67449116561
1619.01167886992
1580.82263074852
1477.04611397543
1448.60885500712
1476.47942519652
1507.5105670985
1497.19259574651
1510.05643777584
1737.56016057911
1146.57188265867
1422.5859644212
949.153473023868
845.355073022734
1309.00978878922
1579.69138291743
1662.73244879323
1600.00839768531
1518.72226217305
1472.1337314884
1483.29981236051
1468.92174924917
1421.65764219897
1432.69610775658
1555.59068204992
903.554858422464
1475.04333653289
1063.5975425148
823.717715771677
998.594385366815
1477.13702462451
1647.31518246378
1601.96253648671
1515.7842210055
1468.3772986099
1483.92545045053
1501.60152766954
1482.33444146178
1485.62936267634
1660.16420719122
1050.01847759546
1529.70598446364
1162.09043796609
866.933904978527
890.863453819179
1395.86790179071
1617.53298529492
1578.50483090759
1491.93919572545
1454.33582699398
1475.55375640411
1507.41949576179
1498.42418350412
1507.08913526628
1722.61907343052
1144.46742119722
1478.96562959489
1103.11251309339
966.337960704069
1289.79864485519
1524.62286888944
1644.77778772917
1578.95439666665
1499.23640130737
1477.54429478723
1484.74894600417
1471.93431344439
1424.03484253599
1449.07496256621
1577.19670387505
900.327495983452
1518.31277251519
1168.83188210356
912.84214080295
1062.31954249629
1451.16948654689
1636.68288492182
1582.4043843494
1490.34742610464
1462.40588277063
1486.9963695133
1502.48870685154
1478.72602938649
1494.10671699508
1698.22612242104
1067.38599369639
1539.34857152877
1201.01889871163
904.764811169084
913.309962071113
1393.67377658791
1619.01104291983
1580.82258400905
1477.0461994841
1448.60863643798
1476.47910433986
1507.51036608455
1497.19262451118
1510.05665910111
1737.56026480208
1146.5719182749
1422.58627817447
949.154376818806
845.354544013622
1309.00923111558
1579.6909998104
1662.73247791074
1600.00861964289
1518.72224163058
1472.13361576814
1483.2998574706
1468.92237618047
1421.6594444899
1432.69792010805
1555.59179112739
903.5549518555
1475.04360493545
1063.59806577284
823.717716790728
998.593477306638
1477.13646176498
1647.31508458704
1601.96266128548
1515.78416955254
1468.37707630277
1483.92497397159
1501.6013754282
1482.33487818218
1485.63050498935
1660.16487214437
1050.01842818019
1529.70610246961
1162.09064033686
866.934084727877
890.864238494064
1395.86700484638
1617.53238299914
1578.5048408499
1491.93924372184
1454.33564877232
1475.55344705337
1507.41927339656
1498.42410533339
1507.08954100391
1722.61914367015
1144.46737974831
1478.96564864929
1103.1125825097
966.337827889079
1289.79854059554
1524.62277631602
1644.77774872403
1578.95442185103
1499.23640001581
1477.54429587273
1484.74893039729
1471.93434505177
1424.03495950573
1449.0750980021
1577.19677619729
900.327494904787
1518.31279575638
1168.83194253981
912.842127107221
1062.31939673436
1451.16937017207
1636.68281883834
1582.40438634901
1490.34744694687
1462.40585503603
1486.99630778733
1502.48868434326
1478.72607304013
1494.10679195835
1698.22616515377
1067.38599053237
1539.34858390407
1201.01892121847
904.764842812801
913.309945924039
1393.67367366812
1619.0109449844
1580.82257977495
1477.04621978902
1448.60861090004
1476.47906161967
1507.51034192384
1497.19262213891
1510.0566786337
1737.56027581532
1146.57192260316
)
;

boundaryField
{
    inlet
    {
        type            timeVaryingMappedFixedValue;
        fieldTable      T;
        value           nonuniform List<scalar> 
24
(
1899.99984998737
1899.99984998737
1899.99984998737
1899.99984998737
1899.99984998737
1899.99984998737
1899.99984998737
1899.99984998737
1899.99984998737
1899.99984998737
1899.99984998737
1899.99984998737
1899.99984998737
1899.99984998737
1899.99984998737
1899.99984998737
1899.99984998737
1899.99984998737
1899.99984998737
1899.99984998737
1899.99984998737
1899.99984998737
1899.99984998737
1899.99984998737
)
;
    }
    outlet
    {
        type            freestream;
        freestreamValue uniform 300;
        value           nonuniform List<scalar> 
156
(
300
300
300
300
300
300
300
300
300
300
300
636.769066589631
512.026946954238
377.2037881118
317.74634978272
300
890.387247464684
300
300
300
300
300
300
300
300
300
635.250002430844
532.751829897951
389.129903216307
320.221531994787
300
300
300
300
300
300
300
300
300
300
300
636.768990351201
512.026904242968
377.203776390183
317.746348624435
300
890.388189283461
300
300
300
300
300
300
300
300
300
635.250335603296
532.752164227366
389.130031626802
320.221553714674
300
300
300
300
300
300
300
300
300
300
300
636.769776808007
512.027333842886
377.203900682477
317.746363757038
300
890.388359644298
300
300
300
300
300
300
300
300
300
635.250355672793
532.752189916635
389.130042363625
320.221555430662
317.74634978272
354.518766140387
475.951610769909
680.275962658599
900.143541288482
1046.56707945309
1141.30540010162
320.221531994787
363.977907209663
476.532489299569
670.090666251753
897.09670333628
1064.03469677761
1143.41646538494
317.746348624435
354.518764266361
475.951594919531
680.2759422962
900.143533105669
1046.56708398427
1141.30540375539
320.221553714674
363.977886007301
476.532438145085
670.090535145471
897.096621435354
1064.03462567398
1143.41649899935
317.746363757038
354.518801960743
475.951787795498
680.276184525947
900.143622279465
1046.56702687515
1141.30535707855
320.221555430662
363.977884293804
476.532434729206
670.090527539923
897.096619509045
1064.03462189509
1143.41650310457
300
300
300
300
300
300
300
300
300
300
300
300
300
300
300
300
300
300
300
300
300
300
300
300
)
;
    }
    sides
    {
        type            zeroGradient;
    }
}


// ************************************************************************* //
