/*--------------------------------*- C++ -*----------------------------------*\
  =========                 |
  \\      /  F ield         | OpenFOAM: The Open Source CFD Toolbox
   \\    /   O peration     | Website:  https://openfoam.org
    \\  /    A nd           | Version:  11
     \\/     M anipulation  |
\*---------------------------------------------------------------------------*/
FoamFile
{
    format      ascii;
    class       volVectorField;
    location    "0.0001000042";
    object      U;
}
// * * * * * * * * * * * * * * * * * * * * * * * * * * * * * * * * * * * * * //

dimensions      [0 1 -1 0 0 0 0];

internalField   nonuniform List<vector> 
900
(
(0.011562047053406 0.0200084015806656 682.978651078678)
(-0.00342462386298302 -0.00589078194042688 682.102527551791)
(-0.00883799331184965 -0.0151937982457266 682.185933305936)
(0.000868635809727402 0.00147397690837263 682.940534121076)
(-0.0069953727307839 -0.0120691758723798 682.06579339368)
(-0.010515989057126 -0.0180820880316582 682.153226654711)
(0.00208947244831689 0.0035917683387477 682.888222345896)
(-0.0020494354575068 -0.0034973261289774 682.020417943492)
(-0.00461241087147896 -0.00784329856952871 682.114214103235)
(0.0218875489786553 -1.91254938268119e-06 682.978934408156)
(-0.00660369463997485 6.74075726251657e-08 682.103371433774)
(-0.0163179243762861 2.3926502189249e-06 682.185278294828)
(0.00197187685608615 -1.44931658545251e-06 682.94132922002)
(-0.0106394256031958 3.97508117537988e-07 682.065467195569)
(-0.0153302529515805 2.60016025314369e-06 682.152028139849)
(0.00438875425674447 -9.34828113926358e-07 682.888481181273)
(0.000540925561354727 9.93348840890601e-07 682.021303688332)
(-0.00312389384738413 2.93505571744199e-06 682.115042010814)
(0.0115628806195901 -0.0200116664333005 682.978647558086)
(-0.00342342410196001 0.00589008250213765 682.102523721556)
(-0.00883664787111704 0.0151968378418933 682.185925891137)
(0.000868825294242023 -0.0014769911043087 682.940531596032)
(-0.00699453109191396 0.0120693122950615 682.065790377103)
(-0.0105147227632158 0.0180860933680552 682.153221308258)
(0.00208953544334641 -0.00359421462960953 682.888221029512)
(-0.00204913028371857 0.0034984057167022 682.020416657435)
(-0.00461211687535317 0.00784884858641638 682.114211998068)
(-0.0109069675593421 -0.0189369479380786 682.978993358514)
(0.00327745473859755 0.00570377436868565 682.103454971356)
(0.00806857429764467 0.014083448900326 682.185395942263)
(-0.000961644217060603 -0.00169813669393302 682.941365657057)
(0.00528043938294297 0.0091854530382901 682.065528577764)
(0.00755650108958372 0.0132095003158835 682.152115488974)
(-0.00217223163652218 -0.00378470275719259 682.888497186192)
(-0.000325800630879951 -0.000497685365194742 682.021329529272)
(0.00143497888710287 0.0026286017377959 682.115082510886)
(-0.0230746080032209 -8.99203011680571e-07 682.978705335507)
(0.00680312040183127 6.55860368415688e-07 682.102600532418)
(0.0175095349554693 2.58948644943781e-06 682.18604953297)
(-0.0016864084391892 -1.33869801646472e-06 682.940570983231)
(0.0139200391213288 7.75894120154588e-07 682.06584581058)
(0.0208253110851833 3.0344350540101e-06 682.153308529238)
(-0.00413257132743773 -1.15369208938775e-06 682.888239171451)
(0.00401287835161039 8.03568444727422e-07 682.020442319625)
(0.00898512812483954 3.01158496298444e-06 682.114247978141)
(-0.0109071452271338 0.0189333934720042 682.978997266902)
(0.00327738375079199 -0.00570347186786088 682.103460014965)
(0.0080689939211987 -0.0140792261717846 682.185403505184)
(-0.000961797905614256 0.00169548998262582 682.941368155335)
(0.00528005584870229 -0.00918397160083072 682.065532382411)
(0.00755627008252355 -0.0132038023092562 682.152121301923)
(-0.00217186621912826 0.00378219846880184 682.888498391075)
(-0.000325878623127331 0.000499811355291953 682.021331033059)
(0.00143457224643937 -0.00262194981201865 682.115085212658)
(-0.00988711694300371 -0.0167661875968471 684.915035493363)
(-0.0125160053783713 -0.0210172025411966 692.684046430743)
(-0.0058708225122717 -0.00892867565383581 703.846768070448)
(-0.00901346661721112 -0.0152538900275499 684.891782101204)
(-0.00757623209626894 -0.0123403681367679 692.674421002541)
(-0.00313322867356775 -0.00407736937296095 703.84451190643)
(-0.00602926681536625 -0.01000441813139 684.859114084293)
(-0.006640421372079 -0.0105212425523867 692.656506606751)
(-0.0034105805524814 -0.00404581537401856 703.839039806646)
(-0.0195747228585424 1.76423560045629e-05 684.911170371342)
(-0.0246819691206747 3.32315409827827e-05 692.681891371002)
(-0.0172177855593254 0.000104955610156447 703.845984156473)
(-0.0146222280184242 1.97051171877042e-05 684.888093183265)
(-0.0140087552242616 3.17904854070801e-05 692.670883306837)
(-0.00966872739433157 0.000102504458039092 703.844511416108)
(-0.00777497043802426 2.21383215307632e-05 684.859216118971)
(-0.0109788989206984 2.97761745124554e-05 692.655494725387)
(-0.00722645617479597 9.56101908654493e-05 703.838127546391)
(-0.00989303753817132 0.0168027906266322 684.91501373466)
(-0.01253219842362 0.0210786672709922 692.684003677012)
(-0.00598744652953764 0.00915506808302021 703.846667991693)
(-0.00902158232020581 0.0152942867076438 684.891767587222)
(-0.00759436828447415 0.0124061394085755 692.674382947044)
(-0.00322305687184851 0.00426793041055569 703.844430808997)
(-0.00603237813143956 0.0100436517708565 684.859109218208)
(-0.00664698802889304 0.0105771301472607 692.656482010868)
(-0.00346831995561126 0.00420932933887403 703.838992883004)
(0.00946364566016982 0.0168164448416521 684.911432919929)
(0.0116453160747714 0.0213048888829248 692.682315444236)
(0.00684049301256284 0.0149920788623163 703.846671977074)
(0.00691700346807853 0.012471850649515 684.888265021813)
(0.00615739263272793 0.0118699385704027 692.671238859054)
(0.00284125483349442 0.00816266245214708 703.845210046376)
(0.0034777793178428 0.00657252248582325 684.859289360525)
(0.00455101979982367 0.00911857927490165 692.655696543794)
(0.00122536542619269 0.00550580316136859 703.838309115805)
(0.0191127292191493 1.32600417951786e-05 684.915374620497)
(0.0234121999255219 1.20855908283226e-05 692.684882773623)
(0.0071640500019079 1.09720633952501e-05 703.84777757989)
(0.0172928943183365 1.31295150951574e-05 684.892026493298)
(0.0132382508499718 1.36368292975988e-05 692.675136229833)
(0.00186156213205301 1.58958913103724e-05 703.845358737683)
(0.011277183785883 1.67354783570779e-05 684.859200716259)
(0.0113675578339099 2.22709480101563e-05 692.656924491998)
(0.00214905356734437 2.34352238796052e-05 703.839456518974)
(0.00946777488462553 -0.0167872026645432 684.911449055839)
(0.011666756919824 -0.0212738659681271 692.682325331094)
(0.00694435204668423 -0.0149388969316342 703.846731301147)
(0.0069191628352323 -0.012435475196033 684.888273251658)
(0.00617383616915486 -0.0118312523692807 692.671250217316)
(0.00292599085888175 -0.00809002073871058 703.845269268989)
(0.00348337977888491 -0.00653783956319605 684.859292664205)
(0.00456003493071267 -0.00907025146641579 692.655706834429)
(0.00126382557103516 -0.00539730554591844 703.838331178502)
(-0.0114652958086151 -0.0182725555790796 716.351485876126)
(-0.00625271049138616 -0.0100004360306921 716.353209965232)
(-0.00492433286235455 -0.00436412270165042 716.350438605248)
(-0.0179562413693558 7.30328436142327e-05 716.35341559221)
(-0.00979398781247798 7.29850534071292e-05 716.353833490473)
(-0.00726733951879365 0.000121842768542692 716.349878491942)
(-0.0115219099575718 0.0184620708530519 716.351450745843)
(-0.00634793423039615 0.0101693837718946 716.353180207789)
(-0.00493846944098234 0.00465797442686832 716.350397821643)
(0.00655275416035171 0.0135944219153425 716.354530682613)
(0.00213896931874016 0.00591315393721814 716.354301896126)
(8.80430924475034e-05 0.00381962561810332 716.349720775153)
(0.0190818164699955 3.27164874454615e-05 716.351305504873)
(0.00949140874906945 -2.28489845016748e-05 716.353105151552)
(0.00286350930300458 0.000192939757592657 716.350654001715)
(0.00650583376367288 -0.0133653757308373 716.354648732071)
(0.00203656635462983 -0.00559819519008795 716.354364988098)
(3.85811583983133e-05 -0.00341000317626285 716.349710960611)
(0.00124983808280398 0.00639057214234003 729.684544656648)
(0.000478779036599901 0.00501925178985057 729.688079979663)
(-0.00163554816277907 0.00206071110684037 729.688923170026)
(0.000634973021261111 0.000244399228317186 729.685834578399)
(-0.000462022643222225 0.00024688046454477 729.688164903016)
(-0.00229145245814859 0.000253421651989247 729.689013513488)
(0.00123071394274715 -0.00589764150175064 729.684547373615)
(0.000455930393732032 -0.00452449921453543 729.688076563077)
(-0.00164893973414658 -0.00154544185854559 729.688901016491)
(-0.00405642677843477 -0.00232552541011066 729.685646725866)
(-0.00367868064650845 -0.00155689462622708 729.687996448489)
(-0.00297144851223808 -0.000177128062019755 729.688990902273)
(-0.00999394528472271 0.000225718540415523 729.684296027011)
(-0.00852412281603199 0.000219248269905472 729.687922221602)
(-0.00492236612268852 0.00027163278573246 729.689064255054)
(-0.00404720490957381 0.00279710789728365 729.685633399319)
(-0.00368098828132589 0.00205434923429485 729.687980918454)
(-0.00298165066119181 0.000713709254209597 729.688990937116)
(-0.0151062376576783 -0.0247648409184157 744.031654796847)
(-0.00922514698120687 -0.0143621135608951 744.035367843324)
(-0.00499345069211109 -0.00584889112488592 744.030745031201)
(-0.0143928746217794 4.92474633186548e-05 744.033392721444)
(-0.0060485982205277 5.26166680974269e-05 744.032951158486)
(-0.00385063671428868 7.21012378660834e-05 744.030026449256)
(-0.0151274971310034 0.0248583915543199 744.031654615859)
(-0.00924654908543144 0.0144799682256541 744.035369322399)
(-0.00498256807340909 0.00601284564591785 744.030742382855)
(0.00539692179133592 0.0113167553497292 744.033554330824)
(0.00105792144350521 0.00385834642895543 744.032979407953)
(-0.000403246615244975 0.00173948490046604 744.029822541826)
(0.0273393212178062 2.37902592865439e-05 744.031366771677)
(0.0152445982158437 3.39019191480697e-05 744.035170612389)
(0.00548902954948525 0.000109281705594706 744.030752895533)
(0.00536987603076824 -0.01117687360413 744.033594044369)
(0.0010218650151767 -0.00369436660454151 744.032995937572)
(-0.000440711755754912 -0.00151689793979455 744.02981449556)
(0.0134022425909604 0.0272274445840481 759.76529997767)
(0.00672743522315266 0.0155826529209399 759.765491605873)
(0.00111181181895619 0.00663863043985879 759.770878486106)
(0.0096080953841925 0.00023316711634856 759.76293979554)
(0.00262283101476725 0.00023462186779499 759.766206603402)
(-0.00090440879644011 0.000243970698008284 759.770226427549)
(0.0134099680422472 -0.0267565186625831 759.765299959765)
(0.00672613117127405 -0.0151016293378197 759.765489024204)
(0.00112335203815921 -0.00613750780135165 759.770892170085)
(-0.00821154182408069 -0.0101728159633198 759.762788775738)
(-0.00476390640231767 -0.00417387115895365 759.766027592738)
(-0.00318085726428451 -0.00125067171305603 759.770032521897)
(-0.0333790783327782 0.00023962950010196 759.765134146781)
(-0.020047716787641 0.0002350982614602 759.765419538029)
(-0.00961757576379739 0.00027498309696641 759.77080522821)
(-0.00823239411961266 0.0106703496246092 759.762781751877)
(-0.00478636384326799 0.00467841456066757 759.766015729186)
(-0.00320214763721039 0.00177888083338166 759.770017589332)
(-0.022823643385936 -0.0376201599055813 776.993757103864)
(-0.0141328691914016 -0.0224994358862922 776.995839084129)
(-0.00632236969618648 -0.00803958158772163 776.993417898646)
(-0.0179937055669278 0.000110894884510446 776.996708092662)
(-0.00765762442106887 0.000114404254431699 776.994410821865)
(-0.00389988903789913 0.000124668394351395 776.991319383931)
(-0.0228362012379103 0.0378421488250036 776.993747687586)
(-0.0141507155657476 0.0227351700815174 776.995835103844)
(-0.00630661737936375 0.00829754541859924 776.993434292669)
(0.00706433211295426 0.0144640646810674 776.996840312143)
(0.00181322561487541 0.00540645108105163 776.994430213296)
(-0.000264746044362495 0.00201475710595272 776.991292187436)
(0.0422267242330889 9.64747742071375e-05 776.993705583998)
(0.0247037709191984 9.74651175379793e-05 776.995818084463)
(0.00819783566603328 0.000153929766844255 776.993332407017)
(0.0070380514593026 -0.01420158223673 776.996877503066)
(0.00178695778612914 -0.00513592185049561 776.994440669521)
(-0.000288574893472838 -0.00171790374390952 776.991291977262)
(0.0203317371764836 0.0382367809473272 798.260202917324)
(0.0115435929737208 0.0228893436321747 798.272643793807)
(0.00285964637087289 0.0083523508468334 798.275154445634)
(0.0114483649701503 0.000166071379457613 798.252398822386)
(0.000635743899989009 0.000165052186512308 798.264855738602)
(-0.00292352062609172 0.000175118023620536 798.274442499213)
(0.0203514993739808 -0.0379148454360097 798.260203227801)
(0.011551935635547 -0.0225518595859318 798.272637138546)
(0.00287622883487416 -0.00798595959001875 798.275166647437)
(-0.00820678973367684 -0.0113762545282951 798.25235062477)
(-0.00281924914896151 -0.00205508554710565 798.264715230566)
(-0.0011503689671977 0.00101993537031561 798.274316003884)
(-0.045337846158791 0.00017875801171862 798.260129507983)
(-0.0277952565771279 0.000172604625425728 798.27262702298)
(-0.0110084433376744 0.000201982671673886 798.275077676393)
(-0.00822981270856299 0.0117449811695145 798.252343951061)
(-0.00284714169207166 0.00243021401018518 798.264697461101)
(-0.00117279938787541 -0.000630750626827707 798.274302300636)
(0.00657314979109636 0.0145975260432822 821.759152792487)
(-0.00749393275704058 -0.0098606868013932 821.78900100158)
(-0.00650239314667654 -0.00797121635714926 821.818586525987)
(-5.43330180845127e-05 0.000199837185521754 821.776949378876)
(-0.0168867687078836 0.000203369096064981 821.800354610323)
(-0.0127718048118795 0.000209079699477422 821.821733426477)
(0.006582265295751 -0.0141786652825073 821.759137315726)
(-0.00749233494554266 0.0102824956991592 821.788988745954)
(-0.006499112579481 0.00840900408779277 821.818583637705)
(-0.0025168365307644 -0.00139767572594061 821.776820245082)
(0.00585680435646813 0.0131570180489907 821.800198398088)
(0.00377927202273837 0.00964751857460187 821.821667898732)
(-0.0182154995966236 0.000217550736990451 821.759192914424)
(0.00994310735241197 0.000211600061281767 821.789035187874)
(0.00772899050806444 0.000222262966950424 821.818573558429)
(-0.00254161883174978 0.00183901705472741 821.776805353753)
(0.00583440056517022 -0.0127122290136351 821.800181667077)
(0.00376431045937244 -0.00920318987165795 821.821665037099)
(0.015540177132749 0.0302589138190684 852.920698967402)
(0.0167577857553419 0.0323598395443999 852.874982795144)
(0.00648196299279503 0.0147057155949409 852.82245834208)
(0.0121887721856992 0.000213595112738757 852.89173072471)
(0.0136019274337093 0.000217319802813595 852.855022558237)
(0.00600730281807993 0.000224280729133591 852.820740790384)
(0.0155502263603316 -0.0298129516890903 852.920696614506)
(0.0167650258461051 -0.0319105128897377 852.87497898936)
(0.00649006730626805 -0.0142411544885408 852.822465452573)
(-0.00872306361677075 -0.0120215455204456 852.891669703125)
(-0.00947948962465616 -0.0132753799240561 852.854994731916)
(-0.00571880259758656 -0.00665899260086306 852.820706762612)
(-0.0363451039958216 0.000231756426546083 852.920677390582)
(-0.038807634600364 0.000230642769974773 852.874976053025)
(-0.0184655464010312 0.000239922122663742 852.822404374614)
(-0.0087464514724719 0.0124885366066728 852.891666586298)
(-0.00950187787646593 0.013748416581881 852.854995638447)
(-0.00573348091433068 0.00713322416875562 852.820706491703)
(0.025022551635058 0.0433024766512184 683.815214051119)
(0.0089896174136203 0.0155347177353598 683.778467084324)
(0.00700057147691665 0.0120998578689164 683.715203292638)
(0.0501717421297937 -1.85169538676451e-06 683.8144004896)
(0.017269153563374 -1.21445881038831e-06 683.777890786087)
(0.0135973905971843 -6.5555723421553e-07 683.715309332357)
(0.0250233105065172 -0.0433070002459623 683.815211605666)
(0.00899032857831433 -0.0155390033843721 683.778464099039)
(0.00700062924621199 -0.012102155747769 683.715200980359)
(-0.0250463134168609 -0.0434241673348258 683.814417800664)
(-0.0086013128217947 -0.0149263574893653 683.777914226331)
(-0.00677815955480133 -0.0117569920011719 683.715331126129)
(-0.0499668182514785 -1.60534517157402e-06 683.815240974349)
(-0.0179055028880906 -1.52583680112883e-06 683.778498257221)
(-0.0139561188903853 -1.10260537210172e-06 683.715226764348)
(-0.0250460178360428 0.0434199369386088 683.814419190063)
(-0.0086004281188135 0.0149223799691663 683.777916256464)
(-0.00677745934180302 0.0117544642676728 683.715333172725)
(-15.1217491433637 -26.1917701988678 6.47979391372596)
(-6.72180244055659 -11.6429673195461 6.04702273633077)
(-7.00591788750757 -12.1350597015623 75.5944980285361)
(-20.3524303935696 -35.2519605545646 76.0689693422543)
(-18.1903503246848 -31.5069102348485 87.5275739623935)
(-16.3060953957377 -28.2428837952639 94.4969346689969)
(-14.1897370895988 -24.5771639123109 108.347954627388)
(-17.946435258761 -31.0839651433073 139.990908140892)
(-24.7195696320208 -42.8153842841765 163.807811510193)
(-27.4973411156891 -47.6272337886461 167.061892201232)
(-21.4341625200123 -37.1252853403006 163.489643355853)
(18.0120083834818 31.1974397245708 146.089239554272)
(115.523805968051 200.092934692717 78.6751748826132)
(130.723353087258 226.419425493133 119.499369624955)
(87.2208291777999 151.070879789311 127.712495123675)
(-19.1110380635412 -33.1017647971307 40.2433694581526)
(-11.5127104955907 -19.940812053321 341.714366380709)
(-42.1301419186826 -72.9717541595733 407.674386485558)
(-21.2906125425813 -36.8767079616736 331.098648747517)
(-4.10089751628244 -7.10318662755052 276.06953238378)
(2.16560804403032 3.75114121606286 257.971488308332)
(8.08039356236844 13.9960144501924 287.576854714675)
(7.70127422955282 13.3392406400333 346.742497374267)
(0.142686825898981 0.246838777178681 393.920241093565)
(0.731922395984762 1.26615780218478 413.279154975799)
(-8.15786027827046 -14.1307257316363 404.380606246718)
(-0.0312405924131847 -0.0545306602822419 344.919078457626)
(83.0543169203907 143.853959982226 168.824467944087)
(123.360324267506 213.666181029228 158.149602990602)
(75.2092050763022 130.266102423791 186.205552673614)
(54.6951408725267 94.7340346541724 204.550024807448)
(198.893990892763 344.495024551039 1111.43839991285)
(15.5039147484472 26.8535921490684 1059.50225012301)
(-89.0300690375964 -154.203349716727 786.173278742719)
(-45.4773875337922 -78.7671344312356 630.451856120942)
(6.69875792741896 11.6030516560503 575.417569837264)
(12.3236146447662 21.3455072970561 624.665064003668)
(2.14503922317714 3.71481125747302 694.146997502661)
(-11.9925128584649 -20.7735794022746 734.383449768303)
(-22.0142088898141 -38.1290905691609 727.7090645858)
(-28.087110674107 -48.647418450633 704.306650935715)
(-12.4638342712709 -21.5880093238858 731.561928928728)
(40.1138180965327 69.4791299019361 590.07456795641)
(118.42426492518 205.116559500879 296.055360802101)
(102.187225050924 176.993393238265 297.079154141137)
(344.297042075035 596.340438463101 909.958979731676)
(538.711477460652 933.076471621802 1619.75662229144)
(172.358721785047 298.534033877043 1614.6203805696)
(-82.7582425643739 -143.338811669341 1376.75132195298)
(-80.4537814839948 -139.350581307169 1023.96015700658)
(-13.3198738006494 -23.0710445893002 914.033930596278)
(49.8069032860882 86.2682924685064 976.835896493282)
(33.2394582775404 57.5732436412417 1053.55224568502)
(3.85194146432812 6.67238290581062 1097.77345827292)
(-9.75039313527884 -16.8878833185769 1080.05797539512)
(-22.5547847940422 -39.0650281820248 1064.97492815089)
(-8.28027980085342 -14.3427135090943 1127.21372626704)
(18.2689109243351 31.6418770097741 1074.85508989806)
(74.3268189185954 128.737519163343 617.258482080025)
(87.220433432116 151.070178159754 476.000791035273)
(-24.496103068221 -5.18845522647123e-06 6.29570977069379)
(10.0890197569355 3.46533876169936e-07 116.367539082379)
(-11.9484516282585 -4.84791343091698e-06 171.754784835309)
(-53.0918927375605 -9.03091619099405e-07 147.413337132308)
(-41.6084423181304 -3.96118292588608e-06 118.608884553996)
(-28.9020831857013 -7.78771872783994e-06 110.519676209961)
(-23.7279674058128 -1.60598018973357e-05 126.884893844338)
(-30.3939838031436 -1.66636726222308e-05 143.775221437968)
(-46.4171107396552 -5.21440189680009e-06 150.813398336573)
(-60.4397434885583 4.6091597995877e-06 142.930837694205)
(-57.3182906555463 -2.13641479262878e-05 134.796171988312)
(25.6348233902893 -2.16001367718462e-05 127.833514587289)
(251.781648006083 -8.64228078759052e-06 69.1342629458038)
(268.603414053413 -1.84279087356223e-06 123.062353291602)
(183.967035771016 -1.41543486924037e-06 130.310642125877)
(42.2064194338539 -4.74831093912127e-06 65.182348383799)
(105.346306180629 7.83601048399188e-06 398.913199534138)
(1.01768080710404 -2.3943938476714e-05 504.488815516747)
(-54.7395268239004 -3.11797819467204e-06 427.625261795301)
(-20.5002168475663 6.07237416387343e-06 329.821403050774)
(4.88398644121435 -6.69091843549978e-07 301.390824344906)
(20.5976236083013 -2.63853569422557e-05 323.187709672793)
(13.7996081797718 -1.53828477202423e-05 351.997242578741)
(-2.62886129049327 -5.84041915907613e-07 360.937452147048)
(-9.46725369898834 -1.23589628882365e-05 371.594913367188)
(-19.1069756189705 -4.36515382094082e-05 393.014200748809)
(35.0858027560757 -5.29279475221937e-05 364.249857761916)
(181.411255873538 -3.03942966591031e-05 179.237364439267)
(245.826588577602 -6.35881370510786e-06 155.968926321179)
(149.972247729454 -2.08081809411464e-06 192.126750243589)
(222.852701930204 8.17683404750061e-06 281.255317967994)
(268.838627205984 0.000107719226120095 993.439721106835)
(-2.11208704295969 8.26838774605391e-05 964.093033890696)
(-141.683594970008 -0.000141201027263286 798.076384590784)
(-74.2585892109707 -0.000169053468005468 650.565786779673)
(7.85286570847314 -0.000101438948093898 615.063990363421)
(1.66517417601643 -2.0182492500133e-05 647.055641162354)
(-22.8569907116019 -5.20235210264306e-05 676.172060931027)
(-39.2039200515524 9.99165449432536e-05 678.778343364904)
(-41.3344108097127 -2.00317051530323e-05 695.932448011714)
(-32.5899080936267 -8.8645280757334e-05 721.94993947589)
(-7.10943851939414 -7.40812145976063e-05 767.812698101829)
(98.0349447866683 -7.8460235306119e-05 609.496275612105)
(238.38202875271 -2.58040097079736e-05 313.295287988716)
(189.312324899912 -3.80093137742592e-06 295.621487632482)
(554.637647390114 0.000147600743769159 881.825226619692)
(831.693763095138 0.000188783131486122 1564.95385408375)
(183.329899564749 0.000143489192375336 1430.01783333577)
(-207.312786679236 4.30986268981933e-05 1269.40515028547)
(-153.147790454005 5.52676977849532e-05 993.752534126716)
(-11.018626935519 1.20692663569515e-05 917.736540204779)
(105.946516016385 -3.37640427495446e-05 957.592092754252)
(60.8219518508599 -4.84747323545375e-05 1021.62166568385)
(-30.3286067636183 5.80563841163903e-06 1044.92539496089)
(-21.3232736411777 8.8465723667429e-05 1058.95409485621)
(-3.77441211131636 -3.27270450930697e-05 1089.90234597214)
(19.4454682680871 -7.99328790405888e-05 1151.44313638884)
(31.4534053671438 -4.31562539758962e-05 1069.51390508094)
(126.412325677464 -4.28371488432057e-05 596.193065838471)
(152.527882635977 -9.80912023111755e-06 459.782595867324)
(-15.121738324828 26.1917360959373 6.47980299439112)
(-6.72184166319443 11.6429659239564 6.04695691816324)
(-7.00596570838181 12.135068490217 75.5943386313214)
(-20.3524752633442 35.2519488187901 76.0688685680595)
(-18.1903692410077 31.5068916080344 87.5275235499223)
(-16.3060855156659 28.2428730653455 94.4969003404762)
(-14.1897271961119 24.5771645626041 108.347927585407)
(-17.9464283787487 31.0839694381032 139.990843926735)
(-24.7195642305475 42.8153881686901 163.807729399598)
(-27.4973585110435 47.6272226437649 167.061822830931)
(-21.4341748826779 37.1252840275431 163.489555474155)
(18.0119863292703 -31.1974245743744 146.089166356826)
(115.523791236095 -200.092922250091 78.6751349827996)
(130.723347881452 -226.419421792782 119.499350829431)
(87.2208299324485 -151.070883559855 127.712486102157)
(-19.1110627761204 33.1017485472306 40.2433477765306)
(-11.5127544843598 19.9408629972647 341.714061424222)
(-42.1301507012888 72.9717322998823 407.674169213236)
(-21.2906084275734 36.8766371993941 331.098441112209)
(-4.10089461683567 7.103116394719 276.06937635535)
(2.1656289992021 -3.75117274415659 257.971403112399)
(8.08040161008836 -13.9959960734795 287.576755509159)
(7.70127474185766 -13.3392172101466 346.742347596042)
(0.142661964469893 -0.246823664584139 393.919991865488)
(0.731850446721931 -1.26617968364325 413.278929810174)
(-8.15789237275779 14.1306967835134 404.380451425301)
(-0.0312250956442256 0.0544694208142918 344.919012553668)
(83.0543228043124 -143.853995187255 168.824413203242)
(123.360316491478 -213.666180882563 158.149563784233)
(75.209202245288 -130.266102587808 186.205548776466)
(54.6949874156731 -94.7338683217424 204.549936270652)
(198.893831551628 -344.494674421344 1111.43809506398)
(15.5038357537282 -26.8534421109112 1059.50192273992)
(-89.030014379878 154.203408888899 786.173045459122)
(-45.4772309496085 78.7671271669591 630.451630884908)
(6.69877019286977 -11.6030348278103 575.417454804941)
(12.3235766740872 -21.3454154790565 624.664883165764)
(2.14493816627798 -3.71472210857499 694.146725813277)
(-11.9926537916447 20.7735856537824 734.383011107886)
(-22.014230732214 38.1292036523771 727.708608603335)
(-28.0870723161551 48.6474354719068 704.306392552477)
(-12.4638244945122 21.5879953003654 731.561771786895)
(40.1138232237503 -69.4791398117893 590.074407996123)
(118.424258605206 -205.116571842399 296.055275471458)
(102.187220888186 -176.993391858112 297.079145367487)
(344.29702863295 -596.34036500982 909.958954936769)
(538.711259950559 -933.075993296477 1619.756357659)
(172.358513345895 -298.53367487696 1614.62012496427)
(-82.7581426310838 143.339038179734 1376.75111536699)
(-80.4538552244474 139.350599745649 1023.95996768242)
(-13.3199247950999 23.0710553807654 914.033795289904)
(49.80686668892 -86.268241163239 976.835746960939)
(33.2394113772559 -57.5731131503602 1053.55199372557)
(3.85187063724544 -6.67221841820681 1097.7730417571)
(-9.75046675157535 16.888005010444 1080.05750031462)
(-22.554758932983 39.0650574315012 1064.97457113097)
(-8.28036220217534 14.3427591294986 1127.21347102482)
(18.2688370065254 -31.6418276558379 1074.85488432679)
(74.3268154954148 -128.737543598848 617.258349466926)
(87.2204347610681 -151.070184776719 476.0007702675)
(12.2479923480001 21.2140827947112 6.29577753628084)
(-5.0451374262113 -8.73840459747348 116.368355518074)
(5.97394253451774 10.347136599319 171.755528623079)
(26.5459030889935 45.9788602549364 147.41425488573)
(20.8043368345804 36.0341079052985 118.609439772437)
(14.4512116491738 25.0301044255733 110.519811704213)
(11.8641316401856 20.548970511502 126.884857085026)
(15.197068819022 26.3217957934713 143.77543895422)
(23.208642425411 40.1984237958101 150.813954245616)
(30.2198715070078 52.3424145332861 142.931321415858)
(28.6593833279697 49.6390504143517 134.796661154687)
(-12.8172694742169 -22.2006262795556 127.834022849674)
(-125.890799897014 -218.049451512317 69.134568632917)
(-134.301726768168 -232.617455788497 123.062483159663)
(-91.9835132810723 -159.320154579605 130.310749497376)
(-21.103462281537 -36.5523242580734 65.1828884851463)
(-52.6735270007576 -91.2330753351013 398.914708593186)
(-0.508980534029377 -0.881843208796895 504.490595274314)
(27.3698374108354 47.4059475796282 427.62694423944)
(10.2502900608296 17.754130478054 329.822742695257)
(-2.44198157640611 -4.22967854070959 301.391318775496)
(-10.2987178390455 -17.8383740210367 323.188133507146)
(-6.89979579968704 -11.95098095651 351.998176593484)
(1.31430441573077 2.27648194645477 360.938847668602)
(4.73346921606563 8.19832392065048 371.596219148325)
(9.55379464787639 16.5466973363115 393.015236070799)
(-17.5423294554528 -30.3853636433913 364.250576095265)
(-90.7052878832892 -157.106843029396 179.238026735402)
(-122.913255937912 -212.892152369928 155.969137637477)
(-74.9860813201078 -129.87975701061 192.126754642535)
(-111.42714448628 -192.997355821826 281.256275135294)
(-134.420763680759 -232.822070235793 993.441807129903)
(1.054962465544 1.82845088199119 964.095299852818)
(70.8427439409473 122.701296015702 798.078094461949)
(37.1306991006965 64.3099111822298 650.567872406323)
(-3.92580346004798 -6.80106495911776 615.064926257372)
(-0.832682055058609 -1.44229653178967 647.056781299281)
(11.428410956732 19.7939156051608 676.174563503594)
(19.6010454666886 33.9520421636637 678.780893368232)
(20.6671075548305 35.7962841202814 695.93512269862)
(16.295707474777 28.2232427800819 721.951909752004)
(3.55536677817225 6.15654922840195 767.813848757252)
(-49.0167487380478 -84.9011820229268 609.497519830414)
(-119.190836926716 -206.445169634977 313.295997924911)
(-94.6560978099042 -163.949264040932 295.621514871175)
(-277.320210846555 -480.330658307921 881.825863015353)
(-415.849233467428 -720.269394190377 1564.95552139192)
(-91.6666886661518 -158.769338673857 1430.01916071459)
(103.655320930153 179.536950977691 1269.40717428083)
(76.5730257527186 132.629297273555 993.755132760484)
(5.50913298380909 9.54250265184409 917.737801344167)
(-52.9732141811478 -91.7526473009217 957.593847560629)
(-30.4111820292772 -52.6743401082617 1021.62479945088)
(15.1637375542997 26.2648530947893 1044.92845988565)
(10.6607009664667 18.4668698019509 1058.95742914741)
(1.8874415888169 3.26854075993237 1089.90501891367)
(-9.72251006893404 -16.8414098236684 1151.44487975452)
(-15.7265449205471 -27.2400124388808 1069.51557743728)
(-63.2056828974433 -109.476402139338 596.193991797038)
(-76.2638078615152 -132.093031446755 459.782589852971)
(30.2438103158012 -7.67993171696544e-06 6.47974246701443)
(13.4438965746119 -3.46662963698646e-05 6.04740468073327)