/*--------------------------------*- C++ -*----------------------------------*\
  =========                 |
  \\      /  F ield         | OpenFOAM: The Open Source CFD Toolbox
   \\    /   O peration     | Website:  https://openfoam.org
    \\  /    A nd           | Version:  11
     \\/     M anipulation  |
\*---------------------------------------------------------------------------*/
FoamFile
{
    format      ascii;
    class       volScalarField;
    location    "0.0001100002";
    object      Ma;
}
// * * * * * * * * * * * * * * * * * * * * * * * * * * * * * * * * * * * * * //

dimensions      [0 0 0 0 0 0 0];

internalField   nonuniform List<scalar> 
900
(
0.79833419990474
0.801414585583473
0.808634209485501
0.798351955196007
0.80142353928891
0.808637636220389
0.798394788420781
0.80145468844752
0.808658732427974
0.798334682687763
0.801414925993202
0.808634516258758
0.798352365336139
0.801423786537178
0.808637676598506
0.798394891630706
0.80145482084296
0.808658863964893
0.798334195416266
0.80141458088637
0.808634204974314
0.798351951094693
0.801423535182867
0.808637632746344
0.798394786077937
0.801454685935675
0.808658730305061
0.798334724374198
0.801414961407598
0.808634544619348
0.798352405450682
0.801423824342261
0.808637709872929
0.798394920307864
0.801454846961004
0.808658886591638
0.798334267566616
0.801414656668475
0.808634269312012
0.798352016315199
0.801423600025588
0.808637681497638
0.798394823227064
0.801454724731309
0.808658764523565
0.798334727117956
0.801414963691146
0.808634546263297
0.79835240808472
0.801423826794284
0.808637711983803
0.798394922232944
0.801454848798952
0.808658887877608
0.819536605818748
0.832934557318287
0.847409954898442
0.81953449454882
0.832930908340162
0.847405901889251
0.819540749893871
0.83292663748091
0.847399307144938
0.819537361914585
0.832936145687553
0.847409460047366
0.819534708746447
0.832930925406582
0.847405136657157
0.819540768427434
0.83292564371589
0.847399048388336
0.819536594098799
0.832934536293066
0.847409950359292
0.819534486920447
0.832930896865695
0.847405903096678
0.819540749211441
0.832926639544789
0.847399311150725
0.819537415124811
0.832936220619927
0.847409542444029
0.81953475841374
0.832931017709941
0.847405194043808
0.81954080775113
0.832925703766037
0.847399067975976
0.819536728939704
0.83293481401595
0.847410022043056
0.819534572952471
0.832931052068743
0.847405895314098
0.819540764007028
0.832926617517228
0.847399267845319
0.819537420202467
0.83293622719149
0.847409549036983
0.819534763173112
0.832931025123685
0.847405198515817
0.819540810220252
0.832925708038475
0.847399069388036
0.862839134900375
0.862835737152269
0.862830730170303
0.862838873586794
0.862835531142479
0.862830629103652
0.862839133375671
0.862835737484717
0.862830731031298
0.862838892429771
0.862835539380092
0.862830653343297
0.862839164200226
0.862835739063454
0.862830722844668
0.86283889386867
0.862835539806744
0.862830656937512
0.879251050170793
0.879249357581945
0.879246250647272
0.879250455594381
0.879249285745536
0.879246438856656
0.879251051973198
0.879249358419214
0.879246249872709
0.879250494402344
0.879249300072582
0.879246439420565
0.87925103900003
0.879249352590081
0.879246257616265
0.879250498165853
0.87924930162901
0.879246439308262
0.896716108236902
0.896716167306917
0.89671213007074
0.896717148042762
0.896715674048942
0.896712498040621
0.896716101856086
0.896716162060513
0.896712126673786
0.896717281544921
0.896715764784868
0.896712533162797
0.896716180022107
0.896716226987466
0.896712160122133
0.896717298153051
0.896715772906652
0.896712536146459
0.915363006402352
0.915361753080725
0.9153619851046
0.91536171446341
0.915362502925427
0.915363225880383
0.915362997516817
0.915361745439642
0.915361986352453
0.9153617174384
0.915362510643982
0.915363182992664
0.915363100025781
0.915361833265345
0.915361964577987
0.915361714827546
0.915362509273923
0.915363179973533
0.935556732689501
0.935556867044141
0.935552892962746
0.935558556955068
0.935555825067953
0.935552643969407
0.935556702831633
0.935556846728997
0.935552884715559
0.935558874171916
0.93555597701492
0.935552602048606
0.935556957759776
0.935557024988724
0.935552977232887
0.935558928095145
0.935556004007436
0.935552599725574
0.959830075899668
0.959840214788887
0.959840134153659
0.959826917894969
0.959834770106019
0.959841187644695
0.959830046886166
0.959840190797669
0.959840127276389
0.959827299163145
0.959835062092503
0.959841161154316
0.959830378969085
0.95984048298111
0.959840211983624
0.959827317156202
0.959835072829415
0.959841156285953
0.986583905423969
0.986612059161183
0.986635776313453
0.986603394156541
0.986622397172507
0.9866376070143
0.986583884801361
0.986612043324689
0.986635772634854
0.986603439433675
0.986622391518499
0.986637582957562
0.986584026015256
0.986612176939035
0.986635802433849
0.986603439667131
0.986622388639332
0.986637581045371
1.02196966470006
1.02193955064529
1.02189654633958
1.02194527960142
1.0219226240914
1.0218958139337
1.02196965847351
1.02193954781664
1.02189655346422
1.02194524576988
1.02192260727709
1.02189582681466
1.02196971435269
1.02193956830092
1.02189648227486
1.0219452408047
1.02192260363
1.02189582736138
0.798630481269847
0.798683907439836
0.798753314765161
0.798630655500129
0.798684032819629
0.798753344156807
0.798630478131975
0.798683904637346
0.798753312975588
0.798630691762558
0.798684066451411
0.798753368063808
0.798630527309213
0.798683948407059
0.798753340825793
0.798630694196855
0.798684068728064
0.798753369692768
0.0632459108064873
0.0241756022187933
0.0992409724625962
0.135217396154488
0.15731004697511
0.17359785631516
0.219711101582494
0.271034451820362
0.332648447341096
0.365312751508504
0.365908962868397
0.358512886813516
0.354305879199494
0.383596591084482
0.4135587548022
0.141995957143388
0.449973576692239
0.51512879726112
0.417807230032432
0.393445095382435
0.407045926338362
0.444532186732801
0.552963998778414
0.602819956367098
0.628771870967925
0.648639357053811
0.660414331281834
0.685063786864568
0.759042947528252
0.618419376563678
0.608318246751135
1.67957516709221
1.28114776880124
0.931717026814278
0.792019738646638
0.806355659532787
0.856828880083373
0.962958118842164
0.988854527449379
1.00133249675072
1.02009869517223
1.04214376908153
1.08174878972863
1.21246140615904
1.06533280609889
2.30865583437763
3.25506190085568
2.27560476936687
1.59180563312104
1.18008698844981
1.17931501751461
1.28640060391337
1.38186611169004
1.38687133408564
1.38303098802786
1.39786669781455
1.42116279165461
1.46301439464488
1.60873467716876
1.57231612757078
0.0388055605554106
0.184892543301499
0.255384110936799
0.265027550208321
0.206137070440373
0.204446169265306
0.261994764175181
0.309460903124205
0.365586805513574
0.373316970768878
0.357271029708486
0.334363718357581
0.329012928464652
0.376299844593767
0.467840534297972
0.172106292899807
0.618127924607002
0.677404043500362
0.588958560502156
0.482763509061967
0.473917604285892
0.502163106469271
0.593687141018963
0.618269877445146
0.623630909425716
0.629854945646589
0.636541106300891
0.672513814009695
0.747731298190888
0.63988069932839
0.816752838387425
1.49301270816973
1.25345057902079
1.03976534770813
0.871325854211369
0.871488986247449
0.90200749063896
0.974422337172093
0.956380306744908
0.959424153417105
0.995670922196551
1.04736489215145
1.1019375417228
1.22514975154284
1.07340664280203
1.76136619181581
2.74901380636607
2.01872100128285
1.59286992328713
1.21319619687517
1.21004835887631
1.29151734314186
1.36595934236121
1.32258625898427
1.33560573598108
1.37649630219285
1.43998890376449
1.48937667086834
1.61776581164676
1.5224815832709
0.0632459073416687
0.0241758204006524
0.0992406440017602
0.135217133883837
0.157309807783307
0.173597665295719
0.219710945129209
0.271034428001154
0.332648420513938
0.365312742460421
0.36590901818218
0.358512911635487
0.354305852175951
0.383596484924799
0.413558620104469
0.141996028503851
0.449973172052262
0.515128477008534
0.417806762961326
0.393444692423753
0.40704567606124
0.444532008412265
0.552963815432336
0.602819785593487
0.628771691564208
0.648639115985996
0.660414162122084
0.685063605305372
0.759042793994878
0.618419177056734
0.608317599215902
1.67957426191222
1.28114752745762
0.931716652059498
0.79201935798061
0.806355445545874
0.856828644947038
0.962957667194742
0.988854137569242
1.00133210251034
1.02009791358824
1.04214326671009
1.08174831214982
1.2124610870639
1.06533253486464
2.3086554872926
3.25506028401727
2.27560408160222
1.59180535458134
1.18008677175669
1.17931489513339
1.28640040531607
1.38186567220753
1.38687101219696
1.38303029141696
1.39786586578699
1.42116212176708
1.46301385852182
1.60873430778043
1.57231586867222
0.038804848643682
0.184895702388631
0.255385187047669
0.265029848361777
0.206138702552771
0.204447570190391
0.26199613209609
0.309461366688783
0.365587113362739
0.37331727998491
0.357271308525699
0.334363865883838
0.329013814587314
0.37630132552378
0.467842358030189
0.172108230182785
0.618132854035348
0.67740895349902
0.588962341285311
0.482766089871008
0.473919722487321
0.502164005702147
0.593688437875554
0.618271015602587
0.623632221554757
0.629856075527903
0.636541984683047
0.672515330760212
0.747732558994687
0.639882881844295
0.816756341048639
1.49302161163162
1.25345973189511
1.0397705537139
0.871327950484305
0.871491819805022
0.90200863199721
0.974424572841265
0.95638357440364
0.959427285763713
0.995673455070636
1.0473670946135
1.10193980774734
1.22515160226076
1.07340982819478
1.76136619454011
2.74902639755605
2.01873225262451
1.59288066874883
1.21319869218129
1.21005111142957
1.29151830173251
1.36596258101969
1.32259050268735
1.33561065030974
1.37649979561199
1.4399918268763
1.48937941556713
1.61776830088382
1.52248478630005
0.0632457936211282
0.0241734956593097
0.099243852074275
0.135219245431612
0.157311716291721
0.173599098781474
0.219712131512539
0.271034711617519
0.332648733018201
0.365312907301711
0.365908595143577
0.358512783620159
0.354306218808584
0.383597679365054
0.41356009272946
0.141995093564888
0.449977564143704
0.515131700513898
0.417810945445944
0.393448066863634
0.407047799385175
0.444533589925472
0.55296547758074
0.602821257990395
0.628773394516159
0.648641459168923
0.660415916868993
0.685065523006298
0.759044416136851
0.6184213071532
0.60832431873551
1.67958438190958
1.28115070832621
0.931720461153387
0.792022740879291
0.806357589704491
0.856830736249182
0.962961505838124
0.988857406790681
1.00133561914725
1.02010516432659
1.04214811851459
1.08175302427468
1.21246423221807
1.06533534160101
2.30865904243169
3.25507802299257
2.27561218283916
1.59180861583989
1.18008881965506
1.17931613035158
1.28640204913197
1.38186939114994
1.3868735974715
1.3830361187942
1.39787335343606
1.42116829915044
1.46301897577863
1.60873777594629
1.57231833842069
0.0388047962908657
0.184896062703073
0.255385321246578
0.265030167455813
0.206138926086364
0.204447780065365
0.261996356355902
0.309461445294151
0.365587135157739
0.373317301630552
0.357271317691307
0.334363863496646
0.329013885928494
0.376301464745951
0.467842540278806
0.172108419910251
0.618133434624244
0.677409543618206
0.588962840297245
0.482766437796292
0.47392002121231
0.502164128644547
0.593688610505462
0.618271156545052
0.623632364751113
0.629856179855024
0.63654204686157
0.672515465214452
0.747732685410876
0.639883110122905
0.816756638239381
1.49302265306245
1.25346088783055
1.03977120986487
0.871328209227557
0.871492196698383
0.902008781630855
0.97442486415272
0.956384022208397
0.959427671778375
0.995673726419636
1.04736732238789
1.10194005035362
1.22515181219686
1.07341018303097
1.76136613707448
2.74902785927372
2.01873361382947
1.59288206474924
1.2131989920383
1.21005148260847
1.2915184304318
1.36596302960978
1.32259110808653
1.33561132180257
1.3765002429989
1.43999218245052
1.48937975207182
1.61776861268701
1.5224851735742
1.72444132911231
2.74899074684598
3.26175271386135
2.04535605074132
1.55293632918749
1.47001022616859
1.53900433628878
1.71003693256288
1.70992155199556
1.68761118969986
1.68720437077906
1.71783748320838
1.75823613788347
1.88721139185547
1.86897421243951
1.55045827382701
2.38444318091677
3.198634505591
2.52628064682222
1.88279071257315
1.6784375004483
1.76440151619046
1.92062590684522
1.9023367828709
1.865392816039
1.83035866018892
1.86025010009298
1.90450217089437
2.00391228349353
1.95755052364263
1.45302067964075
2.16174511106633
3.05627968014151
2.89019037306655
2.15025185184401
1.81004070870083
1.91136019432016
2.06771666223314
2.01279106432514
1.9647026558648
1.93361499225013
1.94624065029876
1.98493536328021
2.06304052468216
2.01408539851173
1.59846709570096
2.3235360141776
2.87519226729842
2.08760157598152
1.55997875574784
1.46682053137469
1.54979747782638
1.69393759176392
1.66097271392343
1.65850127348197
1.67863376116406
1.71819928652867
1.76948525524267
1.87403270168171
1.81544356258411
1.48837593529285
2.18245980113402
2.99566758453336
2.53152504480664
1.89159955292555
1.68388142006632
1.78718086774914
1.90916750469613
1.88330473092916
1.85350348631528
1.83192497796119
1.85560960427277
1.90381223646024
1.99556902170591
1.93107664662198
1.44575240721215
2.11197880812665
2.99841306875085
2.86018071087988
2.15245002944566
1.81185887848322
1.91328882431665
2.07105227210616
2.00854332104647
1.96231475066599
1.93411784768274
1.94945862337704
1.98724865138266
2.06094410727387
2.00329903772419
1.72444141646788
2.74899117087865
3.26175230277806
2.0453557461525
1.55293588762572
1.4700097686196
1.5390041173032
1.71003668962959
1.70992113151331
1.68761044185099
1.68720378250109
1.71783699373375
1.75823580406567
1.88721117098515
1.86897402481145
1.55045835530443
2.38444337920476
3.19863452486454
2.52628034866432
1.88279023392914
1.67843670903613
1.76440128408578
1.92062588692054
1.90233641557854
1.86539231471538
1.83035834718034
1.86024987864378
1.90450205019474
2.00391219650027
1.95755035692074
1.45302069961339
2.16174515268891
3.05627959271993
2.89019006795836
2.15025142174471
1.8100402232067
1.91135998516076
2.06771673356343
2.01279089756163
1.96470238383222
1.93361494420741
1.9462405827405
1.98493534496728
2.06304048498939
2.01408532660043
1.59846664102859
2.32353488900706
2.87520007177218
2.08760785175719
1.55998640114195
1.46682672645659
1.54980013721127
1.69394078793252
1.66097674615691
1.65850753240816
1.6786380204492
1.71820160644381
1.76948769439551
1.87403460919473
1.81544591130627
1.48837552044737
2.18245902927948
2.99566988157942
2.53153117611105
1.89160671254161
1.68388838647554
1.78718226696812
1.90916961115236
1.88330753189817
1.85350662997306
1.83192786507452
1.85561160825546
1.90381318067224
1.99556978558291
1.93107822139669
1.44575223444822
2.1119782432812
2.99841355992753
2.86018396788253
2.15245334222698
1.81186243526589
1.91328966349922
2.07105190848247
2.00854474819194
1.96231598512864
1.93411832527453
1.94945911520248
1.98724821835198
2.06094401223484
2.00329861707333
1.72444039879085
2.74898654645441
3.26175661020551
2.04535946491375
1.55294010720517
1.47001364765606
1.53900598038283
1.71003880888871
1.70992451550359
1.68761651082746
1.68720873727626
1.7178412400561
1.7582388240867
1.88721306995871
1.86897561957814
1.55045740928907
2.38444119215696
3.19863424296314
2.52628391422151
1.88279476632819
1.67844315167232
1.76440319710907
1.92062620419674
1.90233930656456
1.86539641347766
1.83036087686984
1.8602516557163
1.90450307310244
2.00391288527702
1.95755183198957
1.45302047985175
2.16174471463973
3.05628027170206
2.89019295813015
2.15025523357319
1.81004413022368
1.91136166323264
2.06771629676813
2.01279219240349
1.9647045773744
1.93361525735123
1.94624117072342
1.98493550140957
2.06304081694402
2.01408592013043
1.59846658834283
2.32353476261434
2.87520111171074
2.08760864777398
1.55998737891183
1.46682760056847
1.54980052542705
1.69394125330157
1.66097733658533
1.65850843671537
1.67863861556883
1.71820192396504
1.76948802743834
1.87403487088169
1.81544621517903
1.48837547978143
2.18245893905137
2.99567020180606
2.53153196424984
1.89160764023256
1.68388938013698
1.78718245753441
1.90916990754799
1.88330794272354
1.85350710021835
1.83192826742901
1.85561188804372
1.90381332412535
1.99556990272541
1.93107842298557
1.44575221924559
2.11197818055994
2.99841365678333
2.86018438298651
2.15245376801636
1.81186294711992
1.91328977843479
2.07105183737569
2.00854495959377
1.96231616724513
1.93411839751018
1.94945918738932
1.98724817488718
2.06094400643979
2.00329857541167
)
;

boundaryField
{
    inlet
    {
        type            calculated;
        value           nonuniform List<scalar> 
24
(
0.798629941251589
0.798630117083182
0.798629938107951
0.798630153411348
0.798629987377116
0.798630155850123
0.798629941251589
0.798681254748449
0.798749458484443
0.798630117083182
0.798681387202884
0.798749486735681
0.798629938107951
0.798681251917106
0.798749456682088
0.798630153411348
0.798681421014735
0.798749510816786
0.798629987377116
0.79868129613211
0.798749484755941
0.798630155850123
0.798681423302047
0.798749512458059
)
;
    }
    outlet
    {
        type            calculated;
        value           nonuniform List<scalar> 
156
(
0.000600143949145577
0.00385996190911901
0.0559493533604252
0.0407964917850948
0.064205260964784
0.0890173355545393
0.122795468396948
0.155186486282209
0.15849181660439
0.153072383069325
0.155115495123837
0.160090281955578
0.155285463268375
0.183242292013004
0.251366566641974
0.000117093608930374
0.108797844357548
0.2012686763703
0.126227702601802
0.0888340447389948
0.121001370205262
0.145605988227512
0.188544056923513
0.197014878626085
0.168518117003159
0.14460948038807
0.12821698412606
0.131415982684338
0.199972642503107
0.260452347836057
0.000600146035031164
0.00386002148236086
0.0559490363031339
0.0407963309573853
0.0642050899217171
0.0890172126211335
0.122795327910247
0.155186478890092
0.158491834241027
0.1530723988727
0.15511560006779
0.160090296842515
0.155285412930238
0.183242168550862
0.251366434550806
0.000117097873889271
0.108800951469883
0.201271897799615
0.12622983143762
0.0888354107398685
0.121002939694374
0.145607214932551
0.188543903158385
0.197014815519841
0.168518182137655
0.144609536445795
0.128217132434114
0.131416830450324
0.199974278609247
0.260453665850847
0.000600122577619026
0.00385943518924865
0.0559523390767128
0.0407978841877759
0.0642065696356426
0.0890180860464319
0.122796311506944
0.155186478832446
0.158491662620396
0.153072311904001
0.155114694308864
0.16009022602152
0.155285978742179
0.183243521531972
0.251367891006429
0.000117098613507924
0.108801284156764
0.201272245128005
0.126230070957471
0.0888355730942104
0.121003175402528
0.145607431249409
0.188543915252242
0.197014798458517
0.168518174091219
0.144609525905711
0.128217132128577
0.131416901936485
0.199974436031832
0.260453799695879
0.412464947426212
0.618295308360564
1.06361218224508
1.57216001072792
1.86903559041626
1.95773088870591
2.01423107068853
0.46647660215725
0.639913538031674
1.07309088026035
1.52246931718886
1.81538215640579
1.93124041216836
2.00348460202672
0.412464810481887
0.618295106384099
1.06361190324153
1.57215975022165
1.86903540092909
1.95773072112171
2.01423100995092
0.466478386917674
0.639915728393557
1.07309408892443
1.52247252936613
1.81538449791401
1.93124196407711
2.00348396547722
0.412466308367983
0.618297263193711
1.06361478735573
1.5721622363249
1.86903701319356
1.95773220357734
2.01423148797203
0.466478565038126
0.639915957606142
1.0730944464964
1.52247291779376
1.8153848009542
1.93124216296908
2.00348390040849
0.0353980259861992
0.0264318071213666
0.0587934305193714
0.337060484751393
0.0240053667233049
0.017577113966585
0.127809508130475
0.223942680933711
0.0353980081594812
0.0264318797678394
0.0587932564850021
0.337060390976644
0.024004851584814
0.0175774699061616
0.127811089086443
0.223943428034303
0.035398106454289
0.0264310879579865
0.058795162917293
0.337061355893851
0.0240048082872509
0.0175774970459745
0.127811245301681
0.223943488993312
)
;
    }
    sides
    {
        type            calculated;
        value           nonuniform List<scalar> 
84
(
0.79833419990474
0.801414585583473
0.808634209485501
0.798334682687763
0.801414925993202
0.808634516258758
0.798334195416266
0.80141458088637
0.808634204974314
0.798334724374198
0.801414961407598
0.808634544619348
0.798334267566616
0.801414656668475
0.808634269312012
0.798334727117956
0.801414963691146
0.808634546263297
0.819536605818748
0.832934557318287
0.847409954898442
0.819537361914585
0.832936145687553
0.847409460047366
0.819536594098799
0.832934536293066
0.847409950359292
0.819537415124811
0.832936220619927
0.847409542444029
0.819536728939704
0.83293481401595
0.847410022043056
0.819537420202467
0.83293622719149
0.847409549036983
0.862839134900375
0.862838873586794
0.862839133375671
0.862838892429771
0.862839164200226
0.86283889386867
0.879251050170793
0.879250455594381
0.879251051973198
0.879250494402344
0.87925103900003
0.879250498165853
0.896716108236902
0.896717148042762
0.896716101856086
0.896717281544921
0.896716180022107
0.896717298153051
0.915363006402352
0.91536171446341
0.915362997516817
0.9153617174384
0.915363100025781
0.915361714827546
0.935556732689501
0.935558556955068
0.935556702831633
0.935558874171916
0.935556957759776
0.935558928095145
0.959830075899668
0.959826917894969
0.959830046886166
0.959827299163145
0.959830378969085
0.959827317156202
0.986583905423969
0.986603394156541
0.986583884801361
0.986603439433675
0.986584026015256
0.986603439667131
1.02196966470006
1.02194527960142
1.02196965847351
1.02194524576988
1.02196971435269
1.0219452408047
)
;
    }
}


// ************************************************************************* //
