/*--------------------------------*- C++ -*----------------------------------*\
  =========                 |
  \\      /  F ield         | OpenFOAM: The Open Source CFD Toolbox
   \\    /   O peration     | Website:  https://openfoam.org
    \\  /    A nd           | Version:  11
     \\/     M anipulation  |
\*---------------------------------------------------------------------------*/
FoamFile
{
    format      ascii;
    class       volScalarField;
    location    "0.0001100002";
    object      p;
}
// * * * * * * * * * * * * * * * * * * * * * * * * * * * * * * * * * * * * * //

dimensions      [1 -1 -2 0 0 0 0];

internalField   nonuniform List<scalar> 
900
(
800257.951248104
797365.772996037
790641.768137032
800243.915523501
797355.582835466
790632.596146663
800231.452017705
797347.730979358
790625.36057703
800257.725078996
797365.695157513
790641.640361829
800243.727261809
797355.440335414
790632.356342594
800231.472862962
797347.785194629
790625.412461903
800257.952422181
797365.774381366
790641.770421901
800243.916476461
797355.58404407
790632.598061359
800231.452195725
797347.731122545
790625.360688462
800257.720637875
797365.695451653
790641.641742906
800243.72424138
797355.441926425
790632.359250486
800231.468214077
797347.779124685
790625.403075167
800257.932265597
797365.750638967
790641.747606453
800243.899994815
797355.56348737
790632.577047901
800231.449134424
797347.729078876
790625.359495112
800257.720394157
797365.69555241
790641.641566313
800243.724056787
797355.442026673
790632.359284216
800231.467955743
797347.778753906
790625.402447643
780623.865619402
768530.221668339
755719.738210466
780613.702406977
768524.351839284
755717.00428057
780611.711359042
768523.161622633
755716.571074014
780623.278081946
768529.560835471
755720.457006196
780613.528650694
768523.439981498
755717.366279878
780611.75971106
768523.1707032
755716.6649594
780623.871830382
768530.236997557
755719.739640684
780613.707428614
768524.366549053
755717.007312219
780611.712107043
768523.162550992
755716.570433101
780623.251307735
768529.506798909
755720.391507528
780613.51602165
768523.408263942
755717.349815476
780611.772325899
768523.138901491
755716.633976165
780623.804404078
768530.037718745
755719.714363216
780613.658319888
768524.173591011
755716.964870546
780611.706925336
768523.149560674
755716.573949177
780623.248891248
768529.502532235
755720.386648184
780613.514060835
768523.405620553
755717.348762429
780611.772559757
768523.1361729
755716.631516883
742348.81367316
742348.985584524
742349.089264211
742349.523746392
742348.768395221
742348.684792017
742348.814388305
742348.985719658
742349.088652207
742349.492026342
742348.748752715
742348.619720246
742348.804320194
742348.992159224
742349.090633025
742349.488941928
742348.747451009
742348.611351256
728415.747087679
728414.331349977
728414.667065151
728416.554763515
728415.258972468
728414.655722701
728415.74647411
728414.329152481
728414.666349187
728416.530789886
728415.242280768
728414.648681849
728415.756978868
728414.355582987
728414.67384034
728416.529517944
728415.241405128
728414.647865306
713925.723060372
713927.825632359
713927.919933216
713925.355433717
713926.565546195
713927.81800727
713925.725397805
713927.826879407
713927.921256056
713925.223150822
713926.466102065
713927.755062638
713925.705872399
713927.812398401
713927.915842686
713925.203308343
713926.452567656
713927.746326025
698775.287104481
698772.023424618
698772.617214924
698775.762632724
698773.717792247
698773.362679609
698775.291196536
698772.023744181
698772.616654315
698775.799214571
698773.71840213
698773.392378415
698775.243697629
698772.020011861
698772.620873945
698775.805728328
698773.722949975
698773.395537667
682842.440671474
682848.025372426
682847.376467634
682840.834404279
682844.361905626
682846.256589825
682842.451071399
682848.036569166
682847.38111961
682840.628462903
682844.224049108
682846.14559834
682842.394095786
682847.953378004
682847.348171916
682840.584433374
682844.190700884
682846.128521272
664038.207853226
664027.845355953
664022.3202683
664039.37411221
664032.034857566
664022.675952901
664038.224069119
664027.847980203
664022.322029939
664039.129843601
664031.82263612
664022.667293177
664038.03276214
664027.789899332
664022.291256403
664039.114799627
664031.81112369
664022.667461685
644268.752481929
644245.211276267
644232.355850205
644253.845740307
644239.216524513
644231.765598104
644268.767517924
644245.218687605
644232.36063326
644253.797881913
644239.254192528
644231.789894121
644268.670403703
644245.158809343
644232.31002321
644253.797032683
644239.259876371
644231.793093886
618736.695240462
618757.358813346
618788.763837826
618752.773385686
618769.764977322
618790.519835936
618736.700301787
618757.358720205
618788.766720413
618752.795044294
618769.818451053
618790.528193256
618736.655851106
618757.3640743
618788.729861725
618752.799977406
618769.82651786
618790.530553723
799994.837304251
799973.797312385
799961.858521104
799994.853367023
799973.867634337
799961.84716594
799994.837246415
799973.797025381
799961.858394107
799994.854025057
799973.869426429
799961.848896222
799994.838168091
799973.801454823
799961.860615908
799994.854069862
799973.869532543
799961.849018611
42366.5379212797
88380.8497774797
108783.074115245
113135.76778211
111371.435391072
108173.731320243
106894.074732579
109574.24341022
109006.700978405
104482.664144199
101332.99761374
97559.6725387212
88586.7374372124
81464.5819460266
75108.1972555198
39759.9912883606
82980.6432126718
105521.503140403
114378.235400248
116649.705883775
116925.096272224
114781.261446797
110790.608662926
112103.566129713
109636.339010646
106338.193283498
103126.758690682
97152.2192875688
84602.199983631
59273.2261527442
33977.3905904998
51434.335108594
86564.3909779488
107223.472818927
112514.280112888
110106.243397519
110592.47616843
105223.595638248
104478.975985231
103636.142628654
101660.160459834
98515.8522202896
93781.9162651004
80509.9305340494
41779.2245110712
36548.5362509538
21262.8506775305
39529.0377038365
90732.9985466449
120042.625064761
115925.641676145
107215.949517372
99642.0015928225
101152.560247068
102816.301146602
103119.263405324
100395.946684159
95273.4857721473
81034.1241833733
29190.0100103819
58494.8134753132
97091.9008717343
119623.562719885
112704.119832943
106983.445318085
109123.442049863
108345.384389691
109931.051861873
109589.460015119
105031.674025448
101200.718562263
95996.8891294405
88339.1230228295
83622.0717260814
82920.5536894217
57948.2044280814
101905.058887847
108006.094307796
108264.452967211
113178.58857972
116754.592913617
115388.785281423
108854.945433564
113448.179347495
111092.451025641
106824.521942595
101266.575389355
95681.1856888626
85690.9921216654
62172.3662460058
53101.8928759071
74827.9429314673
96240.0714996662
98595.6798079188
108419.095650749
111483.293283564
111194.471260654
104315.599991238
106899.470838169
105617.985454544
101448.556814842
95914.8418308864
92947.9960953087
81578.0959798677
46691.7938079457
70356.3546115228
38674.5376703254
53416.7103320564
88074.6305015933
115784.851867905
116502.04318702
106550.515165105
97925.8445314852
104929.109673393
105495.127859585
101693.941042577
97042.5123444679
94207.619303905
82518.1508030003
35950.4206160067
42366.5300411623
88380.8130658933
108783.018925876
113135.729689103
111371.427292802
108173.741332438
106894.088361763
109574.249890903
109006.707074794
104482.670476003
101333.010784251
97559.6858387941
88586.7359041317
81464.579218923
75108.1959992221
39759.9857342835
82980.6163779151
105521.470570474
114378.220458932
116649.701854786
116925.103914304
114781.26976179
110790.606534397
112103.568994992
109636.341122924
106338.206834494
103126.747408755
97152.1984491122
84602.1806940813
59273.2194301007
33977.3820549718
51434.3485281907
86564.3684882854
107223.449922537
112514.268590259
110106.26483592
110592.487450032
105223.602908372
104478.987027887
103636.155722011
101660.200013081
98515.8326797187
93781.8952843852
80509.910193545
41779.2172675326
36548.5319740401
21262.8633647924
39529.0450922272
90732.9925250135
120042.602024208
115925.649495762
107215.934131984
99641.9845399226
101152.574572664
102816.315179952
103119.279717726
100395.937943514
95273.4697447141
81034.1073774573
29189.9957396206
58494.8618903115
97092.0733768484
119623.984097117
112704.570968275
106983.747472843
109123.644956507
108345.473248975
109931.048052157
109589.459754097
105031.636737019
101200.635866785
95996.8497108192
88339.1698465247
83622.0858748323
82920.5984785302
57948.2441757313
101905.253884974
108006.186267033
108264.559584762
113178.818780504
116754.619533795
115388.736229356
108854.9463266
113448.194686202
111092.463508681
106824.459303804
101266.617341985
95681.2687576623
85691.1040866991
62172.4259895423
53101.9527971
74827.9865838772
96239.8799327951
98595.8156772416
108419.461320304
111483.162110401
111194.479659454
104315.54243421
106899.320288323
105617.910709426
101448.476944765
95914.8692913916
92948.0817749919
81578.2365199618
46691.8742684716
70356.5693654792
38674.4136708267
53416.2276572366
88074.3476813022
115785.231910754
116501.791706046
106550.925867051
97925.9446754762
104928.939537172
105495.017313249
101693.909405022
97042.5722597935
94207.6823362892
82518.2421301122
35950.5122306056
42366.6107713759
88381.2156540387
108783.633158606
113136.151642993
111371.540217838
108173.684205858
106893.990471641
109574.203676555
109006.651386942
104482.619185172
101332.898514534
97559.5656444147
88586.7587463522
81464.6092957052
75108.2104276384
39760.0351066041
82980.932056273
105521.822277836
114378.40734682
116649.798779628
116925.0842483
114781.22707841
110790.629878528
112103.541097106
109636.328824171
106338.087723011
103126.852025686
97152.3942236325
84602.3681857551
59273.2875617728
33977.476688461
51434.2205400613
86564.5835133789
107223.684966327
112514.421607698
110106.119174333
110592.423122465
105223.54714811
104478.895734561
103636.042945426
101659.845607373
98516.0154148423
93782.0874362536
80510.1068848017
41779.2927289207
36548.6019450293
21262.7345758379
39528.9465278285
90733.0358522642
120042.840018448
115925.619279538
107216.102090414
99642.1226086127
101152.456850653
102816.205500691
103119.119771812
100396.002009835
95273.5983321231
81034.2655058457
29190.1487051015
58494.8615213288
97092.08733555
119624.020933527
112704.616148439
106983.784110071
109123.67280492
108345.487291303
109931.050750183
109589.458521269
105031.629645938
101200.626244819
95996.8435442585
88339.1738864135
83622.0874977602
82920.6026322492
57948.2433304117
101905.266545011
108006.188595499
108264.565574313
113178.845638378
116754.618721334
115388.727264319
108854.946689644
113448.197283242
111092.462798128
106824.450340911
101266.620658494
95681.2779935868
85691.1157997683
62172.4321240849
53101.9572805596
74827.9842020218
96239.8419024151
98595.829536239
108419.50844066
111483.140302632
111194.480904412
104315.537269129
106899.298574226
105617.898752165
101448.466386427
95914.8702422321
92948.0911183723
81578.2514897509
46691.8822891748
70356.5891004037
38674.3964886464
53416.1585919349
88074.309971246
115785.283749136
116501.751251142
106550.989471005
97925.9629124965
104928.917008532
105494.999725542
101693.904787697
97042.5789426864
94207.6896169846
82518.2521861
35950.5211432242
193457.010635577
44967.4507165342
21934.6145994389
65416.8866532285
119990.166949275
129399.639075381
114523.465899462
95368.02667778
95802.3840635277
102060.256399405
102669.398095447
99745.6558597987
95120.0924540546
81824.3209892378
23204.3816455581
268322.535855957
74349.8173019414
22903.7184825975
45454.4836102156
118090.447610857
138990.941223327
119892.008172411
95868.2202035466
93306.8613645102
100549.529997902
104259.343689037
100954.159580077
95789.2230729377
84499.3738431355
22504.2822709609
325107.308629138
108237.224658796
28282.2521569651
34532.8262210745
116182.031387476
147919.954536316
122111.498386513
94486.3960542234
92470.8471191813
100291.121068527
104730.935054247
101629.476562349
95543.8840046082
85705.5552358414
22877.7117000825
234525.911848212
75445.8315272337
31521.0526303664
64575.5202708693
117348.567187671
128850.596949156
110231.781499169
91790.0982631827
98958.3145179124
103972.628980541
102991.426601172
96200.0785394515
92129.3587517803
83208.5916986391
29292.3142829986
302762.632518476
105377.491063425
31507.2606858267
48501.7739344285
115531.409268771
137931.860678338
114730.247730457
91256.657885843
93474.2525910928
101463.568640639
104871.288880631
99114.0278452477
92891.1924873792
83052.2069047679
25257.7088678331
333481.553399677
123654.851781592
32654.990790674
37145.7406754703
115729.926741929
147892.21204
123709.261887433
92002.0810421547
92137.6127462127
100470.273561882
104706.247577864
100811.091692408
94453.1808474718
84505.5149069165
22925.9765670926
193456.953699045
44967.420732635
21934.6228827611
65416.8905972721
119990.166954089
129399.672727881
114523.434076239
95367.9933124175
95802.3915123002
102060.291358392
102669.419784927
99745.6609913118
95120.0839309624
81824.3079202049
23204.3651542257
268322.488953947
74349.7895706149
22903.7237861901
45454.4962481008
118090.449184888
138990.994137934
119891.976615478
95868.1919464019
93306.8597446151
100549.558794389
104259.358178879
100954.162926072
95789.2140437613
84499.3632739225
22504.2692629505
325107.287763907
108237.207501647
28282.2524528719
34532.8341370461
116182.051067612
147919.988541792
122111.471059769
94486.3713200721
92470.8442465092
100291.136897981
104730.936121677
101629.475863403
95543.8784455816
85705.5501129147
22877.7022538874
234526.548877969
75446.1474148448
31520.8580003902
64575.2984454214
117348.242734787
128850.112472951
110232.1657476
91790.3357793524
98958.2071356322
103972.325016089
102991.349941569
96200.1530446623
92129.4480574366
83208.6880515928
29292.4117948921
302763.052526477
105377.82941796
31507.2191958443
48501.5675862196
115531.159266898
137931.416347341
114730.837490424
91256.9431534312
93474.3029495148
101463.359000181
104871.209989654
99114.0792949274
92891.2881094315
83052.2869670785
25257.8133783042
333481.694739901
123655.016769645
32654.987427426
37145.6465970181
115729.855870695
147891.908886354
123709.461891714
92002.2358187945
92137.6279788069
100470.171368338
104706.222717593
100811.09531022
94453.2224491301
84505.5487182259
22926.07745844
193457.629957417
44967.7526897257
21934.5457119661
65416.8246115498
119990.150000086
129399.391008441
114523.701971212
95368.2533037882
95802.3330070102
102060.010792059
102669.222650166
99745.5984893561
95120.1454091948
81824.4315814516
23204.5436029661
268323.040229531
74350.1032385087
22903.6803428511
45454.3511409735
118090.399957983
138990.561413287
119892.236123741
95868.4098362461
93306.8770686991
100549.322995918
104259.225104248
100954.124123314
95789.285545178
84499.4615960618
22504.4098991728
325107.536234109
108237.396095942
28282.2605351966
34532.7603206004
116181.870598473
147919.708638547
122111.687270056
94486.5604802887
92470.8685179859
100291.009715295
104730.931208732
101629.476573051
95543.9240988236
85705.5973515862
22877.8010098283
234526.611916242
75446.1790532453
31520.8301883267
64575.2680951865
117348.203323133
128850.04387058
110232.222920272
91790.372948905
98958.1929141821
103972.280662251
102991.33969084
96200.1622624423
92129.4584685317
83208.6991411393
29292.4212239448
302763.092968909
105377.864730386
31507.2111255384
48501.539736798
115531.129628328
137931.353213036
114730.924437647
91256.9871123382
93474.3108188378
101463.327756295
104871.199413004
99114.0855569109
92891.2994988733
83052.2961585048
25257.824114149
333481.708460892
123655.033680772
32654.9850749765
37145.6344406009
115729.850444884
147891.866018571
123709.491104035
92002.2596447855
92137.6300059569
100470.156424101
104706.21896623
100811.096050098
94453.2279429506
84505.5528032682
22926.0883565167
)
;

boundaryField
{
    inlet
    {
        type            timeVaryingMappedFixedValue;
        fieldTable      p;
        value           nonuniform List<scalar> 
24
(
800000.264000704
800000.264000704
800000.264000704
800000.264000704
800000.264000704
800000.264000704
800000.264000704
800000.264000704
800000.264000704
800000.264000704
800000.264000704
800000.264000704
800000.264000704
800000.264000704
800000.264000704
800000.264000704
800000.264000704
800000.264000704
800000.264000704
800000.264000704
800000.264000704
800000.264000704
800000.264000704
800000.264000704
)
;
    }
    outlet
    {
        type            freestreamPressure;
        freestreamValue uniform 101325;
        supersonic      false;
        value           nonuniform List<scalar> 
156
(
42781.9615895983
89655.0029311276
106076.021574669
110561.899861386
108125.453193065
104657.942388293
103778.207060172
105677.523858946
105926.734830347
103359.440077555
101330.17756967
98902.2335656455
92919.4166362157
88612.9135245592
86897.4512105191
58589.5310375614
99583.6124224071
110951.316467395
108908.053185112
105080.507755635
105440.764292029
104440.118553024
105646.861943973
105822.190596387
103580.492852393
101244.174185581
97692.9981600665
92381.6510147125
90481.1145640006
93089.4260764646
42781.9552686124
89654.9782236256
106075.992220881
110561.875074244
108125.451493096
104657.948240957
103778.214401184
105677.526926735
105926.737724296
103359.44395742
101330.186094595
98902.2421952423
92919.4148070556
88612.9094098883
86897.4487555418
58589.5845541678
99583.7120228681
110951.463591804
108908.331907239
105080.696076554
105440.851547028
104440.14551629
105646.871698474
105822.196691659
103580.471381684
101244.120378684
97692.9722185891
92381.6964248869
90481.1473221997
93089.4582420501
42782.0195797969
89655.2679404555
106076.31710016
110562.149222064
108125.492363947
104657.914993728
103778.163207336
105677.508738242
105926.712363149
103359.412676333
101330.113426059
98902.1642639626
92919.4383613197
88612.9539536613
86897.4763968039
58589.584915795
99583.7205274577
110951.475951135
108908.360548157
105080.719240058
105440.863235294
104440.149296075
105646.874065497
105822.196724203
103580.467261944
101244.114116238
97692.9680127575
92381.7003571513
90481.1506956806
93089.4613962104
101258.45572816
101266.087717405
101218.908634266
101319.206577435
101321.233418783
101321.624035974
101323.727010493
101274.088240488
101316.596225398
101301.954755916
101315.918174593
101313.004330822
101323.216817081
101324.834658371
101258.455546587
101266.087556604
101218.908191549
101319.206497369
101321.233386534
101321.62393607
101323.726922117
101274.08708378
101316.596631086
101301.955988924
101315.918822547
101313.004286698
101323.216374645
101324.834897964
101258.457575907
101266.089312849
101218.912626044
101319.207300952
101321.233676601
101321.624855015
101323.727755364
101274.08695843
101316.59668116
101301.956134568
101315.918902686
101313.004282401
101323.216321287
101324.834926677
66914.2211571701
48802.9188264462
39486.883541344
43068.9447191457
77897.9923653139
61323.1580295168
58911.8870736911
72688.0575869302
66914.207695638
48802.9343281993
39486.864816461
43068.939692505
77897.9636513546
61323.2275723812
58911.9930797405
72688.2658293086
66914.3482240534
48802.7655814597
39487.0738704061
43069.0150307654
77897.9557160371
61323.2286830199
58912.00289352
72688.2850400411
)
;
    }
    sides
    {
        type            zeroGradient;
    }
}


// ************************************************************************* //
