/*--------------------------------*- C++ -*----------------------------------*\
  =========                 |
  \\      /  F ield         | OpenFOAM: The Open Source CFD Toolbox
   \\    /   O peration     | Website:  https://openfoam.org
    \\  /    A nd           | Version:  11
     \\/     M anipulation  |
\*---------------------------------------------------------------------------*/
FoamFile
{
    format      ascii;
    class       surfaceScalarField;
    location    "0.0001100002";
    object      phi;
}
// * * * * * * * * * * * * * * * * * * * * * * * * * * * * * * * * * * * * * //

dimensions      [1 0 -1 0 0 0 0];

internalField   nonuniform List<scalar> 
2478
(
0.000840785406599762
-0.00017869270324507
8.35591969423378e-11
6.35082327980936e-11
-0.00106387924669281
0.00064450426445373
-0.000157771758937564
8.84693301147869e-11
7.90033638010425e-11
-0.000136938929425729
1.21164484939403e-10
5.66382273926077e-11
0.000474353925586983
0.00050447422605331
-4.46764653202225e-05
6.95341108368323e-11
5.34257927611512e-11
-0.000638337435498259
0.000386701384255321
-3.94455439876809e-05
4.44744421954253e-11
3.90377385907532e-11
-3.4236111917833e-05
6.03726220762841e-11
-5.89273231989609e-13
0.000284609768806748
0.000168164666022514
4.60705277638244e-11
2.74389402800564e-11
-0.000212790566049983
0.000128903408426967
3.94849755105606e-11
3.58402366487133e-11
6.45626431277583e-11
4.94616169853176e-12
9.48708908225336e-05
0.000840785694637615
-0.000178693128364984
-8.19174484105109e-11
-0.00106387959851521
0.000644504447345282
-0.000157772186838998
-9.02492739828648e-11
-0.000136939388873528
-1.02241507117127e-10
0.000474354046016938
0.000504474375697277
-4.46766085553881e-05
-6.81498197175993e-11
-0.000638337659825248
0.000386701400241684
-3.94456994105718e-05
-4.63904898653431e-11
-3.42363012998209e-05
-4.15538485240043e-11
0.000284609695213683
0.000168164691873033
-4.4531028549951e-11
-0.000212790570236543
0.000128903437434085
-4.1475664049051e-11
-4.61369441999773e-11
9.48709077884752e-05
0.000840785402931463
-0.000178692705225281
6.36643243006642e-11
-0.00106387924204803
0.000644504261901681
-0.000157771753570189
7.93753181130112e-11
-0.000136938965072176
5.70592112512751e-11
0.000474353923589563
0.000504474223981077
-4.46764665897529e-05
5.36049867146636e-11
-0.000638337432768702
0.000386701383010907
-3.94455415628578e-05
3.93326508515979e-11
-3.42361297617406e-05
-2.95631493460805e-13
0.000284609768130117
0.000168164665559081
2.76260007166414e-11
-0.000212790565515956
0.000128903408055438
3.61653302249042e-11
5.34706331403907e-12
9.4870890619065e-05
0.000840785733933534
-0.00017869309817821
-8.0556320240701e-11
-0.00106387964925042
0.000644504473666739
-0.000157772171470251
-8.18151904731501e-11
-0.000136939305952028
-1.16301554839568e-10
0.000474354063379512
0.000504474399176377
-4.46765906306073e-05
-6.65546444995543e-11
-0.000638337689282368
0.000386701418294227
-3.94456908539443e-05
-3.94707853098968e-11
-3.42362564724372e-05
-5.69601567789683e-11
0.000284609707590879
0.000168164697057092
-4.2799263373812e-11
-0.000212790577365691
0.000128903440434561
-3.38786129141719e-11
-5.95822467698483e-11
9.48709098832912e-05
0.000840785461015888
-0.000178692692880793
7.87558277056885e-11
-0.00106387931527904
0.000644504301809801
-0.00015777177968647
8.32266534335491e-11
-0.000136938875768469
9.6946235761397e-11
0.000474353951180258
0.000504474256286432
-4.46764561898336e-05
6.49886669002245e-11
-0.00063833747551338
0.000386701402305155
-3.94455515172047e-05
4.10952217351143e-11
-3.42360834643504e-05
3.78366293645686e-11
0.000284609777718599
0.000168164672847942
4.10720648030133e-11
-0.000212790573960265
0.000128903413830572
3.55450945912182e-11
4.07584208354447e-11
9.48708938953458e-05
0.000840785736552904
-0.00017869309503557
-0.00106387965265612
0.000644504475381432
-0.000157772174713555
-0.000136939267838743
0.000474354064638101
0.000504474400722447
-4.46765888663057e-05
-0.000638337691246494
0.000386701419412674
-3.94456923523005e-05
-3.42362373751124e-05
0.000284609708460737
0.0001681646974162
-0.000212790577851933
0.00012890344064905
9.48709099972658e-05
0.000475576670614182
-2.70311691892913e-08
-3.91369116476727e-11
8.04339498109395e-11
0.000476810732578507
-7.08045403677218e-09
6.02182507580384e-10
6.10322853562308e-10
-2.6299480896004e-09
2.83546179699785e-11
-2.14625651452638e-10
0.00047799273191468
0.000285341522975013
-8.19799100229991e-09
-2.51090663018483e-12
1.11118187188456e-10
0.000286083715056306
-2.55842764080314e-09
7.08769758704132e-10
7.21515283337668e-10
-5.06716081420666e-10
1.92487250260092e-10
-7.76745302192433e-12
0.000286793882170916
9.51137422895535e-05
-4.74185232095595e-11
8.61297498166297e-11
9.53603032929838e-05
7.97871043864938e-11
1.98451580743584e-10
1.14986813365241e-10
-7.45791567608248e-11
9.55971872107689e-05
0.000475576957760815
-2.71717635273293e-08
-7.59843305896818e-12
0.000476811183727769
-1.07975804583245e-08
-6.23735559783598e-10
-2.74858677354675e-09
7.57120379303415e-11
0.00047799283575468
0.00028534151177466
-8.24515404465164e-09
-4.4000605838989e-11
0.000286083346934406
-3.16070428982079e-09
-7.31355042824476e-10
-5.88665463596705e-10
-9.07065247023574e-11
0.000286793808328695
9.511371025338e-05
1.78908607763664e-12
9.53601899846491e-05
-1.09007312616531e-10
-1.44544450735896e-11
9.55971819633807e-05
0.000475576666131455
-2.69362557445661e-08
8.14413288869296e-11
0.000476810729977307
-7.01979000221255e-09
6.13612063612469e-10
-2.82976081022318e-09
-2.12367865209517e-10
0.000477992730350165
0.000285341522070951
-8.15176750521051e-09
1.12209464268008e-10
0.000286083716796321
-2.52687677330726e-09
7.25214293619773e-10
-6.05885140073526e-10
-6.36966710930095e-12
0.000286793883193138
9.51137424631044e-05
8.61149828746202e-11
9.5360303720435e-05
2.0089301874587e-10
-7.32841091413347e-11
9.55971874604968e-05
0.000475576973110292
-2.7315902900618e-08
5.62479482478853e-11
0.000476811196970956
-1.08080690537768e-08
-5.59318197226183e-10
-2.56079137940252e-09
-4.7077764321439e-12
0.000477992838589434
0.000285341528110646
-8.33105456198241e-09
1.98773356715337e-11
0.000286083367661217
-3.23038742831199e-09
-6.59953250576641e-10
-4.92783249915387e-10
-1.77868686196837e-10
0.000286793815580797
9.51137172029165e-05
4.67343026799329e-11
9.53601912915972e-05
-4.93398883490322e-11
-9.9275933014651e-11
9.55971791267324e-05
0.00047557672397292
-2.72407249729328e-08
-1.0584715504254e-11
0.000476810765836448
-7.36442594558538e-09
5.77531912375993e-10
-2.49876984381725e-09
-1.00651545637594e-10
0.00047799275208735
0.000285341536282777
-8.29098902656615e-09
2.54809475928007e-11
0.000286083694790258
-2.71275989247987e-09
6.78780383625826e-10
-4.5114693518521e-10
7.5350334424653e-11
0.000286793872008909
9.51137414965084e-05
-1.1417646342271e-12
9.53602984725373e-05
7.6011214575171e-11
-2.38020112517182e-12
9.55971842326553e-05
0.000475576974695351
-2.74061435956343e-08
0.000476811198396605
-1.08474885433677e-08
-2.35618293745101e-09
0.00047799283901351
0.000285341529330248
-8.37660226967775e-09
0.000286083369322089
-3.25506227408321e-09
-3.90456435413189e-10
0.000286793816195191
9.51137175657583e-05
9.53601913421195e-05
9.5597178891294e-05
4.13642330185035e-05
-1.73913026991698e-10
6.38504590888024e-10
0.000530896483080386
1.03413686305504e-05
-5.5473369414737e-10
2.63791864166165e-10
0.00031853704847276
-3.55313429286491e-10
4.71227783085514e-10
0.000106178552732899
4.13649508364162e-05
9.93371341130936e-12
0.00053089674910513
1.03416473130237e-05
3.89537477469594e-10
0.000318537012308581
1.89808270825969e-10
0.000106178500918896
4.13645646617524e-05
6.40562330066728e-10
0.000530896482658434
1.03415358468827e-05
2.65897663967191e-10
0.000318537047994757
4.72989851495534e-10
0.000106178552556057
4.13636201044026e-05
1.53478914635945e-10
0.000530896741568231
1.03409697357066e-05
5.47269479679504e-10
0.000318537003766176
3.53366918137612e-10
0.000106178495478817
4.13629340150245e-05
7.74111840167596e-12
0.000530896488555009
1.03407052123018e-05
-3.8469900691656e-10
0.000318537057635574
-1.89936949686071e-10
0.000106178553804538
4.13632938961987e-05
0.000530896740951646
1.03408050736564e-05
0.000318537003278922
0.000106178494852906
3.46922445913807e-05
-8.08037513473376e-10
-6.91272057824766e-10
0.000575488125289213
8.67310932190407e-06
-5.84739135638199e-10
-5.20984409693032e-10
0.000345292177899835
-2.30957091830204e-10
-2.0247508124337e-10
0.000115097046806958
3.46957920332506e-05
8.6539117012804e-10
0.000575488445358835
8.6741451904073e-06
6.42405764759817e-10
0.000345292398347888
2.86774652527404e-10
0.000115097092173868
3.46921258845538e-05
-6.95584332212167e-10
0.000575488124479803
8.67305244216921e-06
-5.24371689515982e-10
0.000345292176517955
-2.03983942096472e-10
0.00011509704648346
3.46954233412917e-05
5.71661323747058e-10
0.0005754884582751
8.67402081052536e-06
4.36294766102945e-10
0.000345292398420671
1.77307022579745e-10
0.000115097092172684
3.46924465917443e-05
-6.23739468982951e-10
0.000575488130566629
8.67312944901054e-06
-4.89840756444284e-10
0.000345292189869003
-2.31844336860253e-10
0.000115097049586321
3.4695528789042e-05
0.000575488460340807
8.67407453397618e-06
0.000345292398404151
0.000115097092086758
2.39475439904535e-05
1.68863946816474e-09
8.08166877603461e-10
0.000606597582474011
5.98708684155797e-06
9.44329632340205e-10
9.91521848891889e-11
0.00036395926997903
7.26790981185003e-10
-8.36507150982387e-11
0.000121319397020121
2.3941866295011e-05
-1.66157353311382e-09
0.000606597796180931
5.98509491170357e-06
-9.18888404439783e-10
0.000363958773527255
-7.03140400830186e-10
0.000121319506450571
2.39474964049965e-05
8.11639895158429e-10
0.000606597580455268
5.98706330953399e-06
1.02514052693729e-10
0.000363959268391102
-8.31205097698122e-11
0.000121319396970947
2.39434958608267e-05
-1.63936181871247e-09
0.000606597771470304
5.98587917524825e-06
-9.15410632061978e-10
0.0003639587606733
-7.21809457907355e-10
0.00012131950066015
2.39490921892882e-05
1.60693855888894e-09
0.000606597595787587
5.98786478017227e-06
8.85298236412077e-10
0.000363959282881391
6.98749443722724e-10
0.000121319397279932
2.39435512833996e-05
0.000606597766500674
5.9859023730288e-06
0.000363958757743522
0.000121319499741446
3.0263374717175e-06
-2.63731036412741e-09
-1.27368107478033e-09
0.000611437069377091
7.5680839964153e-07
-1.70340836612914e-09
-3.60711006094742e-10
0.000366860861235829
-1.10452014835715e-09
2.93806565339859e-10
0.000122287007172897
3.0360565020707e-06
2.55162053411275e-09
0.000611436898647282
7.59841144440799e-07
1.61737083296566e-09
0.00036686161247955
1.01340967621722e-09
0.000122287212994999
3.02650305059103e-06
-1.28236965935436e-09
0.000611437068659984
7.56894787415363e-07
-3.66085819536281e-10
0.000366860859668835
2.89287567100012e-10
0.000122287007412977
3.03346464384212e-06
2.60098173652124e-09
0.000611436923590291
7.58508497436874e-07
1.67997342599702e-09
0.000366861611184052
1.07501933261289e-09
0.0001222872066865
3.02390035471472e-06
-2.50420448429361e-09
0.000611437064633045
7.5556029498615e-07
-1.58654237490674e-09
0.000366860874029849
-9.82174258265002e-10
0.000122287003913623
3.03327402488714e-06
0.000611436927402441
7.58411774675293e-07
0.000366861611969351
0.000122287206107644
7.92515684139248e-05
4.80614202895326e-09
3.96522423213143e-09
0.000711407321534029
1.98127684119415e-05
2.61308077037286e-09
1.85548258062416e-09
0.000426847842062916
1.57159062684226e-09
6.57324044316381e-10
0.000142281774478434
7.92329355882228e-05
-4.70615148695681e-09
0.000711408238669007
1.98070324083586e-05
-2.51687305431693e-09
0.000426845403505883
-1.46845925214556e-09
0.00014228151874646
7.92513771565652e-05
3.96571424885004e-09
0.00071140732155634
1.98126717773368e-05
1.85552439439882e-09
0.000426847841654332
6.64308302486018e-10
0.000142281774499342
7.92345175056501e-05
-4.67937006189741e-09
0.000711408241360589
1.98079006867398e-05
-2.55512205577652e-09
0.000426845396108797
-1.48629644036074e-09
0.000142281491477915
7.92527380807563e-05
4.57788265379334e-09
0.000711407319748812
1.98134095234207e-05
2.45792888315831e-09
0.000426847844250525
1.38007654485123e-09
0.000142281777139106
7.92347182639473e-05
0.000711408234843713
1.98080113778157e-05
0.000426845388702089
0.000142281487762917
0.00114292964029445
-8.74186930997908e-09
-5.43109695319002e-09
0.00214144141580463
0.000285731210360725
-4.65837614684918e-09
-1.36286080587144e-09
0.00128485893663517
-3.29773116360945e-09
2.67760933000613e-10
0.000428284678196987
0.00114296080025992
8.48954561554274e-09
0.00214143959224553
0.000285741962357086
4.40409562806185e-09
0.00128486177322837
3.02488056407339e-09
0.000428285742511148
0.00114293010704535
-5.44537312203303e-09
0.00214144140102215
0.00028573146728418
-1.37314124529437e-09
0.00128485890751923
2.53973559414047e-10
0.000428284677489458
0.00114295446793739
8.74022994099997e-09
0.00214143969425962
0.000285738593162822
4.65598574094211e-09
0.00128486178751933
3.20325805192988e-09
0.000428285732478156
0.00114292382863297
-8.47487592988338e-09
0.0021414415360791
0.000285728123357676
-4.39118593868531e-09
0.00128485920015209
-2.91911975852394e-09
0.000428284679399749
0.00114295390740997
0.00214143969043432
0.000285738299861216
0.00128486178422715
0.000428285731809438
0.000754311127882737
2.13898141863608e-09
7.77313324590214e-09
0.00308558413291992
0.000188586835916953
6.2698922692183e-10
6.5774732805517e-09
0.00185136526377156
-1.51214310495883e-09
4.37875086114082e-09
0.00061713157885865
0.000754314641282996
-2.60915148850554e-09
0.00308560067329157
0.000188587032020912
-1.09508287713441e-09
0.00185138000980622
1.0344972215014e-09
0.000617133157116177
0.000754312030711623
7.75593616642121e-09
0.00308558413200525
0.000188587294236589
6.54020539526783e-09
0.00185136525279321
4.3573816614368e-09
0.000617131580610178
0.000754303308594412
-2.13695077551281e-09
0.00308560062284925
0.000188581454263088
-9.45506850656523e-10
0.00185138009736772
1.31748338909506e-09
0.00061713316366809
0.000754301133588467
2.62388469838334e-09
0.00308558416195186
0.000188581808916333
1.45099164248434e-09
0.00185136535256073
-8.19507141726177e-10
0.000617131556255502
0.000754302251223523
0.00308560062056453
0.00018858093643748
0.00185138010658265
0.000617133165291638
-0.00176259152671508
-9.29102457822165e-09
-4.12391412175656e-09
0.000882201435267588
-0.00044065394568424
-7.8158334352609e-09
-2.74198184492015e-09
0.000529321134274253
-3.20022901440561e-09
1.81057869033923e-09
0.000176440646021445
-0.00176257455791238
8.8883259901501e-09
0.000882200228450123
-0.000440647822171424
7.40820685986342e-09
0.000529321422097961
2.78807726976056e-09
0.000176440958578556
-0.00176259072878732
-4.14799045746249e-09
0.000882201436499718
-0.000440653545381554
-2.75823016130609e-09
0.00052932113285467
1.79912034283056e-09
0.000176440647998319
-0.00176258445851862
8.70667645689856e-09
0.000882200228198317
-0.000440652603369838
7.44340663833953e-09
0.000529321453751793
3.011840373835e-09
0.000176440962952584
-0.00176259968416077
-8.27930156090074e-09
0.00088220142682468
-0.000440658148283538
-7.01905343651046e-09
0.000529321146213834
-2.589143732691e-09
0.000176440626199558
-0.00176258534491093
0.000882200230294328
-0.000440653039055187
0.000529321457967509
0.000176440963651959
-1.20643547145416e-07
6.43764189092039e-11
3.50300794773294e-11
-3.59963862441373e-08
8.78740432199224e-11
6.74174991549016e-11
3.66955679167655e-12
-3.38342412897416e-11
-1.20831676257531e-07
-6.1719350333625e-11
-3.59748676650095e-08
-8.59398928431711e-11
-3.9844245524473e-13
-1.20649345133482e-07
3.50718194720365e-11
-3.59997758229025e-08
6.76354520350378e-11
-3.38829933619993e-11
-1.20770329508453e-07
-6.29402473065546e-11
-3.5939931541842e-08
-8.42593729706055e-11
-3.87405092814458e-12
-1.2058624633657e-07
6.02372402717759e-11
-3.59604572634808e-08
8.2103416459197e-11
6.5076335162631e-13
-1.20764443078112e-07
-3.59367001032877e-08
-6.13661726122209e-05
7.63604009557341e-05
3.42774732302613e-06
3.42763831284937e-06
2.70698510681159e-05
-7.63114526408078e-05
6.44221394255093e-06
6.44279618590104e-06
0.000121801865175143
-9.45474304190979e-06
-2.37617718634655e-06
-2.375749489756e-06
0.00014415037059749
0.000121817728929598
-2.14225954404586e-05
-2.14228237161798e-05
0.000242541538979878
9.7535517755499e-05
-1.8231797128866e-05
-1.82320945212683e-05
0.000337308199993019
0.000533722122247293
-3.43600770596493e-06
-3.43572838526528e-06
0.000305897712473729
0.000256949331844157
9.62822442405624e-06
9.62849035925035e-06
0.000475265111688499
-2.48246342167587e-05
-3.30344666941572e-07
-3.30665284391371e-07
0.000543574809712384
9.89477161650503e-05
-9.91636471435182e-06
-9.91656782187974e-06
0.000546899524276903
0.000140626998483379
-2.08859386891063e-05
-2.08859096541354e-05
0.000503312669702735
9.31348195810974e-05
-1.49560845500629e-05
-1.49560093023434e-05
0.000437053057381468
2.97292519866343e-05
2.07823530873322e-05
2.07821724403614e-05
0.000400990954196463
2.27875551480877e-05
2.22421993640184e-05
2.22416304009939e-05
0.000416022223861743
4.2006713707446e-05
1.54732303588385e-05
1.54723668405359e-05
-5.52184828974116e-05
1.00869030705287e-05
1.0086878459174e-05
0.00013182778875127
2.18712647891873e-05
-2.77913332422154e-05
-2.779145496458e-05
0.000320296383744467
-0.000296787782705748
1.53934002359475e-05
1.53938154265943e-05
0.000330587652570643
-1.67248461642752e-05
-4.34355291473816e-07
-4.3420579836422e-07
0.000338919547497405
0.000157171165052999
-1.83749662684277e-05
-1.83752990767091e-05
0.000367291933987382
9.75623957655429e-05
-1.13237443876499e-05
-1.13238007213601e-05
0.000409960724900666
5.3067745095787e-05
2.72579844106269e-07
2.72333519404856e-07
0.000535351955092178
6.33047964930744e-05
6.0464323846428e-06
6.04587017288659e-06
0.000550068784490039
-2.9962487666616e-05
3.22347099134917e-06
3.22328415540754e-06
0.000609665936806793
4.60623839181975e-05
1.67332442202624e-06
1.67332714420219e-06
0.000625563336131256
7.60450218741127e-05
6.78516926423483e-07
6.78586440857351e-07
0.00060842408528919
3.84308300440118e-05
-2.19094672185949e-06
-2.19095627268761e-06
0.000568903621117511
-3.71066304911396e-06
-4.85560665833471e-06
-4.85582680540231e-06
0.000546995798442895
-4.52177517175844e-06
-4.00086359946764e-06
-4.00121292844086e-06
0.000521678170726933
1.12010781689738e-05
2.26914846136413e-06
2.26872177781911e-06
6.67222181859058e-05
4.4016355360048e-06
4.40141947078817e-06
0.000313865924374816
-0.000355995757307515
4.62622830912158e-05
4.6262538885191e-05
0.000475328984120633
-0.000459407863537766
-8.47766878373548e-07
-8.45951873655455e-07
0.000495416421712382
-2.98871782978889e-05
-5.61218466299326e-06
-5.61089914952762e-06
0.000461762323354372
0.000213107354270543
-1.24023514692286e-05
-1.24039677405122e-05
0.000451069547195042
0.000128234818979322
-8.24712712490443e-06
-8.24776726775814e-06
0.00046474726981628
-6.59754291326817e-06
5.31792916931922e-06
5.31721084855695e-06
0.000529928152713858
-5.7794964538684e-05
-1.34201652809366e-06
-1.34256586832538e-06
0.000554750874306231
-4.21494275018155e-05
-6.02870569703145e-06
-6.02883508126257e-06
0.000577362212990121
2.64667526152867e-05
1.83854845584914e-06
1.83736596581543e-06
0.00058749355997957
3.95936451760382e-05
7.52885310061215e-06
7.52871773696158e-06
0.000590028372538813
1.24272595438227e-05
1.5364183942387e-06
1.53519014804311e-06
0.00057893486782546
-3.48895447281378e-06
-5.23512024968472e-06
-5.2346383467212e-06
0.000570582972025717
-1.19580899931063e-06
-1.65131275131291e-06
-1.65126235614725e-06
0.000557394317557223
-1.94264896179404e-05
3.51326916441422e-06
3.51321940916308e-06
3.30121732302278e-05
1.31743697847153e-06
1.31736072782607e-06
0.000364330107189075
5.75835817460648e-05
5.75847502423852e-05
-0.000738607568980246
0.000285315634192539
-7.08672315662636e-06
-7.08603805115974e-06
-0.000367189745186166
0.000390104650307674
-1.05225499702968e-05
-1.05224119541391e-05
-0.000116864428084079
0.000469451375508019
-1.07460945993469e-05
-1.07467246789705e-05
0.000150571042095937
0.000460046720994622
2.13047038293934e-06
2.1295530133628e-06
0.00012955531692844
0.000460635198602429
-6.63785522585811e-07
-6.64774226085823e-07
-2.15610976185467e-07
0.000466031003063031
2.56852786693142e-06
2.57454395025377e-06
-6.05008981926382e-05
0.000479480854775584
-8.40949031648096e-06
-8.4093115799431e-06
-3.2234920078146e-05
0.000495978146648148
2.53292933213937e-06
2.53316904618033e-06
6.33333783598501e-06
0.00051078970469347
1.40136300693579e-06
1.40088486390901e-06
1.64212548139112e-05
0.000517611073608117
3.77596854959661e-07
3.77260044010847e-07
1.2401686620533e-06
0.000515550721588517
-1.04087093124363e-07
-1.0371364823409e-07
-2.86151398504533e-06
0.000505670098584617
4.23401974763808e-06
4.23437091102077e-06
2.06632935082862e-07
0.000476844727027116
6.72619808664686e-06
6.72659467229012e-06
-2.31191498250802e-05
-2.06590654984793e-06
-2.06592308916994e-06
4.67428736844346e-06
5.05069731717029e-05
-2.88616497263333e-05
-3.42773586501681e-06
0.000183456931794026
-0.00016347994400151
-6.44221557074252e-06
0.000314572194038553
-8.0491476856914e-05
2.37618735180552e-06
0.000302387700858121
0.000167976580183701
2.14226211040493e-05
0.000276415310810037
0.00013363279648448
1.82318364709973e-05
0.0003935459676214
-9.48075394026403e-06
3.43602101357489e-06
0.000362341275947652
0.000223614319852534
-9.628206102088e-06
0.000537670655877287
-2.88718400060022e-05
3.30349538425919e-07
0.000586810754744599
3.94509394513315e-05
9.91636862279722e-06
0.000564801666414776
7.38263873859401e-05
2.0885919498291e-05
0.000495224053498101
0.000102825461473126
1.49559178738756e-05
0.00040507501970436
6.88446737610897e-05
-2.07823600232759e-05
0.000398411716493792
5.97193300504307e-05
-2.2242180175528e-05
0.000424862767719225
1.22490565815077e-05
-1.54731526526859e-05
8.54585856118796e-05
-1.00868980536132e-05
0.000252510131178363
-0.000313160376845364
2.77913565109279e-05
0.00047848156357403
-0.000356053646487976
-1.5393410465889e-05
0.000450910609917902
-5.05794219228728e-05
4.34354187294975e-07
0.000425039496201459
0.000157670307990685
1.83749964593252e-05
0.000436841659092645
0.00010900108809051
1.13237510540723e-05
0.000439808247225705
-3.07764019707166e-06
-2.72589784452179e-07
0.000570503328249372
7.10601051515912e-05
-6.04640206224667e-06
0.000572677102190166
3.43333100338047e-06
-3.22341661662689e-06
0.000625032004471153
3.03558311825937e-05
-1.67332566094482e-06
0.000638321611977279
4.69313164138691e-05
-6.78527583138468e-07
0.000623012170548039
4.94120173326424e-05
2.19093978712432e-06
0.000565310774814198
1.78558138257533e-05
4.85562071876692e-06
0.000534761365794675
-4.29425812330892e-06
4.00088451001744e-06
0.000513978201679164
-1.97616002225369e-05
-2.26913034614989e-06
3.0015224026449e-05
-4.40162489886788e-06
0.000438987108302426
-0.000583706488342226
-4.6262297115096e-05
0.000589265200793987
-0.000509029996191192
8.47630630989798e-07
0.000547440022104531
-2.26469441005993e-05
5.61209374359055e-06
0.000497279522404467
0.000181316526672581
1.24024893082133e-05
0.000484426333637036
0.000106768599736499
8.24724100209693e-06
0.000498926224171602
-6.94108244515975e-06
-5.31781406209962e-06
0.000546329296546477
-4.41652415268117e-05
1.34216060146311e-06
0.000554967705103267
-1.59541818053833e-05
6.0288050917483e-06
0.000569186240924448
3.24283149969781e-05
-1.83837013942773e-06
0.000585988320527159
4.37536930674875e-05
-7.52886874668643e-06
0.000591388870881644
2.49723423222467e-05
-1.53615907592816e-06
0.000585485589154852
-1.13251532312097e-05
5.23508327642298e-06
0.000581648801529563
-2.12110320845309e-05
1.6513720288703e-06
0.000567145254411622
-4.32794536336086e-05
-3.51321580892153e-06
5.49645926368686e-06
-1.31742953971163e-06
0.000479114864393494
-5.75836872091394e-05
-0.000829712220175089
0.000397096770068233
7.08668350312836e-06
-0.000441354575117749
0.000438687108069025
1.05224844683355e-05
-8.87759530376912e-05
0.000473441481824588
1.07461343369097e-05
0.000121847473489301
0.00046657592211759
-2.13038390876655e-06
0.000114141604856687
0.000469290471876504
6.63746244006208e-07
-6.42008275768784e-06
0.000466915072302963
-2.56887773038579e-06
-6.03859029743845e-05
0.000469100333495798
8.40945430618723e-06
-3.3980577497095e-05
0.000493730459073022
-2.53298481329506e-06
1.63199813683002e-05
0.000502059566677407
-1.40125390788671e-06
3.43270610219025e-05
0.000508911444291388
-3.77618779551957e-07
1.15315019652291e-05
0.000510554635406536
1.04017575998014e-07
-1.96765793296707e-05
0.000514466046108866
-4.23406115964073e-06
-1.98019289330743e-05
0.000488664768067058
-6.72624392425314e-06
-2.41771428670197e-05
2.06590459066183e-06
1.21750421084262e-06
-6.13662696706235e-05
7.6360539457094e-05
3.42764619542594e-06
2.70695851924749e-05
-7.6311077059016e-05
6.44274806184004e-06
0.000121801464088752
-9.45450961206229e-06
-2.37579101065844e-06
0.000144150028343803
0.000121817467928818
-2.14228022930186e-05
0.000242541147331822
9.75354019847972e-05
-1.82320842067531e-05
0.000337307837033024
0.000533722112605423
-3.43577850937311e-06
0.000305897717284795
0.000256949315399971
9.6284240341263e-06
0.000475265133252021
-2.48246107912445e-05
-3.30643300010583e-07
0.000543574869200829
9.89476403191244e-05
-9.91655108089956e-06
0.000546899631270871
0.000140626919921505
-2.08858945492044e-05
0.000503312849189884
9.31342129979404e-05
-1.49558826714316e-05
0.000437053148668063
2.97292062816444e-05
2.07821894471146e-05
0.00040099085848652
2.27875622459597e-05
2.22416576758941e-05
0.00041602210722756
4.20067891086545e-05
1.5472364016238e-05
-5.52183972132964e-05
1.0086874880074e-05
0.000131827632850786
2.18716032527724e-05
-2.77914623806979e-05
0.000320296099484242
-0.000296787277041918
1.53937875998521e-05
0.000330587332081688
-1.67245787493972e-05
-4.3420862769165e-07
0.000338919172867732
0.000157171008796248
-1.83752869269524e-05
0.000367291622886305
9.75622048485871e-05
-1.13237952850824e-05
0.000409960529313048
5.30674832066955e-05
2.72381688739968e-07
0.000535351823770774
6.33047030682802e-05
6.0459193478995e-06
0.000550068670197196
-2.99623643347808e-05
3.22325648684658e-06
0.000609665849303168
4.60623273431498e-05
1.67333419099865e-06
0.000625563230458156
7.60449630546095e-05
6.78590173771286e-07
0.000608423940242624
3.84304166735047e-05
-2.19094659367552e-06
0.000568903453942879
-3.71052959656612e-06
-4.85581931937234e-06
0.000546995631940821
-4.52161680094957e-06
-4.00120275715054e-06
0.000521678046442141
1.12012054041916e-05
2.26874028112626e-06
6.67222630833944e-05
4.40142768957046e-06
0.000313865704278493
-0.000355995290008814
4.62625367670643e-05
0.000475328783893116
-0.000459407519099093
-8.45991961951378e-07
0.000495416176765596
-2.98869478451409e-05
-5.61094459264883e-06
0.000461762061400381
0.000213107318715751
-1.24039195043195e-05
0.000451069379392282
0.000128234687705055
-8.24780112674799e-06
0.000464747164295001
-6.59770334043592e-06
5.31719341471148e-06
0.000529928042351104
-5.77948610795382e-05
-1.34263501582832e-06
0.000554750735275538
-4.21491371038412e-05
-6.02890937181368e-06
0.000577362094966368
2.64669251670735e-05
1.83735536053779e-06
0.000587493400322672
3.95935287451017e-05
7.52875495466541e-06
0.000590028183757895
1.24274967167321e-05
1.53505879197101e-06
0.000578934548728904
-3.48868763856941e-06
-5.23464972688887e-06
0.000570582740949395
-1.19552961936047e-06
-1.65132920182132e-06
0.000557394220572822
-1.94263187912905e-05
3.51316906925872e-06
3.30122683084355e-05
1.31735969587439e-06
0.000364330004876612
5.75847587181933e-05
-0.000738607129569502
0.000285315643920322
-7.08606377884082e-06
-0.000367189562278389
0.000390104597321583
-1.05223558831705e-05
-0.000116864296229387
0.000469451260963378
-1.07467034100503e-05
0.000150571079724923
0.000460046592979067
2.12958371914227e-06
0.000129555264833968
0.000460635130799678
-6.64611560379641e-07
-2.1593657235664e-07
0.000466030866314391
2.57410385545452e-06
-6.05008298869714e-05
0.000479480702437347
-8.40928986284769e-06
-3.22346958339053e-05
0.000495977961117219
2.53321366975464e-06
6.33349092206642e-06
0.000510789553877914
1.40084533108018e-06
1.64212573321811e-05
0.000517610880908963
3.77341871514198e-07
1.24042659361656e-06
0.000515550480369791
-1.03665622598403e-07
-2.86130881041393e-06
0.000505669920175598
4.23437603261316e-06
2.06740811812655e-07
0.000476844629140545
6.72659865751473e-06
-2.31191720996191e-05
-2.06592036375633e-06
4.67429070311122e-06
5.05082556406159e-05
-2.88637597213606e-05
-3.42770581682664e-06
0.000183459163126327
-0.000163485110770066
-6.44269352642141e-06
0.000314574401149029
-8.04964087163819e-05
2.37574987287201e-06
0.000302391045238422
0.00016797759240569
2.14226560802947e-05
0.000276418631899993
0.000133633029510346
1.82318135686371e-05
0.000393549216207181
-9.48088972446194e-06
3.4356782475936e-06
0.000362341996011045
0.000223615686085047
-9.62860096882903e-06
0.000537670999788607
-2.88713637061112e-05
3.30607320358817e-07
0.000586810839906037
3.94511672495727e-05
9.91650855918506e-06
0.000564801635523427
7.3826474002617e-05
2.08860590728117e-05
0.00049522360447346
0.000102825904456027
1.4957267974231e-05
0.000405075679179369
6.8844351346195e-05
-2.0782188612802e-05
0.000398413583863365
5.9718185761802e-05
-2.22419048994908e-05
0.00042486435292278
1.22480360342551e-05
-1.54732227021076e-05
8.54577435786546e-05
-1.00869217025719e-05
0.000252512424596297
-0.000313165326314463
2.7791292589109e-05
0.000478485031055335
-0.000356059497914528
-1.5393640686466e-05
0.000450913713060409
-5.05834542128826e-05
4.34257088411082e-07
0.00042504180399785
0.000157672068607304
1.83750230546999e-05
0.000436844305207794
0.000109001023501786
1.13237636823671e-05
0.000439809387336085
-3.07548692600641e-06
-2.72278276777272e-07
0.000570504165869062
7.10612267485367e-05
-6.04616388185297e-06
0.000572678079960447
3.43298883778828e-06
-3.22372856002682e-06
0.000625032783097415
3.03557190231644e-05
-1.67326747683142e-06
0.000638322339471184
4.69313157567095e-05
-6.78479391438326e-07
0.000623012267538984