/*--------------------------------*- C++ -*----------------------------------*\
  =========                 |
  \\      /  F ield         | OpenFOAM: The Open Source CFD Toolbox
   \\    /   O peration     | Website:  https://openfoam.org
    \\  /    A nd           | Version:  11
     \\/     M anipulation  |
\*---------------------------------------------------------------------------*/
FoamFile
{
    format      ascii;
    class       volScalarField;
    location    "0.0001100002";
    object      rho;
}
// * * * * * * * * * * * * * * * * * * * * * * * * * * * * * * * * * * * * * //

dimensions      [1 -3 0 0 0 0 0];

internalField   nonuniform List<scalar> 
900
(
1.41898268692547
1.41501989453136
1.40579556722989
1.41896345112357
1.41500595713401
1.40578307719349
1.41894637330342
1.41499520272499
1.40577319456626
1.41898237717927
1.41501978788171
1.4057953918957
1.41896319329833
1.41500576178002
1.40578274774568
1.41894640186832
1.41499527703042
1.40577326570974
1.41898268853346
1.41501989643024
1.40579557036734
1.41896345242865
1.41500595879058
1.40578307982295
1.41894637354713
1.41499520291982
1.40577319471742
1.41898237109826
1.41501978828358
1.40579539378765
1.41896318916259
1.41500576396567
1.4057827517462
1.41894639550127
1.41499526872645
1.40577325284214
1.41898266092738
1.41501986388913
1.40579553904599
1.41896342985695
1.41500593061571
1.40578305096986
1.41894636935642
1.41499520013795
1.40577319310323
1.41898237076458
1.41501978842168
1.40579539354468
1.41896318890987
1.41500576410345
1.40578275179285
1.41894639514751
1.41499526821943
1.40577325198191
1.39202376650651
1.37535027208485
1.35762948917235
1.3920098476881
1.37534220698909
1.35762572581707
1.39200721077473
1.37534066493849
1.35762518077501
1.39202296051207
1.37534935593523
1.35763048374096
1.39200960954729
1.37534095046432
1.357626225233
1.3920072759449
1.37534067864731
1.35762530888664
1.39202377496703
1.3753502932366
1.35762949124796
1.39200985460356
1.37534222728917
1.35762573004242
1.39200721206883
1.37534066625972
1.35762517956447
1.3920229241476
1.37534928158783
1.35763039314482
1.39200959187924
1.37534090700382
1.35762620279902
1.39200729043595
1.37534063565793
1.357625267062
1.39202368330649
1.37535001817997
1.35762945554253
1.39200978692864
1.37534196104434
1.35762567124236
1.39200720144024
1.37534064797361
1.35762518654483
1.39202292085459
1.37534927571711
1.35763038641746
1.39200958916712
1.37534090338564
1.3576262013703
1.39200729055671
1.37534063196341
1.35762526380917
1.33906765710235
1.33906786220414
1.33906799542563
1.3390686457235
1.33906755853041
1.33906743652617
1.33906765811425
1.33906786240134
1.33906799455612
1.33906860180198
1.33906753151343
1.33906734597484
1.33906764420228
1.33906787083141
1.33906799758646
1.33906859752549
1.33906752971801
1.33906733431842
1.31965264965548
1.31965063301464
1.31965107988549
1.31965378795229
1.31965193390261
1.31965104993081
1.31965264878705
1.3196506299364
1.31965107915103
1.31965375443484
1.31965191047832
1.31965104205957
1.31965266360419
1.3196506668143
1.31965108619217
1.31965375264594
1.31965190924737
1.31965104121515
1.29938032724959
1.29938324395044
1.29938332148144
1.29937982767601
1.29938148493886
1.29938318595685
1.29938033052825
1.2993832457417
1.29938332334116
1.29937964231096
1.29938134555734
1.29938309728574
1.29938030301898
1.29938322503232
1.29938331602653
1.2993796146214
1.29938132658343
1.29938308502221
1.27809247363487
1.27808785401791
1.27808861281582
1.27809318313832
1.27809027968364
1.2780896124774
1.27809247931721
1.27808785444663
1.27808861205696
1.27809323240661
1.27809027874158
1.27808966382365
1.27809241306096
1.27808784985006
1.27808862117402
1.2780932415998
1.27809028525226
1.27808966802802
1.25560375470048
1.25561161544162
1.25561065318259
1.25560152330969
1.25560646123445
1.25560906810723
1.25560376933804
1.25561163119964
1.25561065945259
1.25560123035111
1.2556062657992
1.25560891367201
1.25560368928463
1.25561151426588
1.25561061417396
1.25560116792578
1.25560621865313
1.25560888926841
1.22890520535738
1.22889002614458
1.22888179595179
1.22890682770915
1.22889599091447
1.228882309445
1.22890522842026
1.2288900298314
1.22888179837672
1.22890648123199
1.22889568970499
1.2288822975171
1.22890495698952
1.22888994828081
1.22888175524381
1.2289064597211
1.22889567323047
1.22888229769072
1.20069564915175
1.20066089332733
1.2006412065663
1.20067443592627
1.20065235846232
1.20064039185794
1.20069567100041
1.20066090413791
1.20064121340932
1.20067436844321
1.20065241455058
1.20064043026285
1.20069553037579
1.2006608174342
1.20064114067292
1.20067436704153
1.20065242275882
1.20064043523566
1.16395896712441
1.16399053169284
1.16403427734992
1.16398174396491
1.16400757163751
1.16403683218261
1.16395897472894
1.16399053176587
1.16403428155995
1.16398177741676
1.16400765033107
1.16403684447967
1.16395890890811
1.16399053705741
1.16403422710005
1.1639817847157
1.16400766215102
1.16403684800769
1.41862227502828
1.41859341900148
1.41857706285442
1.41862229710334
1.41859351539164
1.41857704728071
1.41862227494881
1.41859341860803
1.4185770626804
1.41862229800704
1.41859351784854
1.41857704965194
1.41862227621518
1.41859342468029
1.41857706572493
1.41862229806857
1.41859351799403
1.41857704981967
0.2598244217097
0.359574207501353
0.492478761616752
0.653100681278294
0.776797277664984
0.795082163309699
0.754029900864991
0.831873110711428
0.862036907463268
0.841397120353425
0.782917444694266
0.692991337229219
0.593060564379959
0.515612941934946
0.464120038379038
0.275228196709559
0.23963961404938
0.261605208136427
0.32791430077383
0.40195885294123
0.472201253672812
0.514957312033259
0.458646414193417
0.480111043346252
0.495451372128326
0.47081093375329
0.425772585314271
0.381599304570647
0.335772787184721
0.25411290960295
0.272202148716305
0.15462393979644
0.18652133826689
0.235612526440033
0.268011489509688
0.28289887074967
0.302126840438688
0.287938906831381
0.297348564351871
0.314776601176849
0.313870170876525
0.300423734595287
0.284252386470944
0.255059146677038
0.130023167644657
0.191147420987936
0.0840826962515197
0.106980746006188
0.186775574990671
0.245991884050522
0.24334559583414
0.233074261356476
0.223242144166024
0.23177412554386
0.243129847841796
0.249831255698266
0.247130563782641
0.23903950161978
0.216455494890347
0.075200087920508
0.347319268881251
0.348366752843865
0.467444835670478
0.609167598054309
0.724767311431789
0.772755092108891
0.723288440731715
0.818793802874061
0.875555132999109
0.882875612091307
0.843994046951141
0.738177629594063
0.596983536862734
0.495299826495132
0.483077124066246
0.373227556979459
0.316615518614552
0.27455748024869
0.312954727495679
0.384937219058769
0.430059709043804
0.500739556970403
0.451618898692766
0.491178941148335
0.523600398866366
0.512634892802059
0.456989786296927
0.387016267170213
0.333699811649699
0.270462634620329
0.34986639205758
0.212976810469623
0.221745094957648
0.230502279005104
0.262559503744443
0.282404379602268
0.302867995714152
0.28897181538766
0.307231756112111
0.326839378759174
0.328145191420606
0.307588193860836
0.286618071323691
0.255416993210676
0.144610931094003
0.266101888444023
0.125874988785053
0.141559892606648
0.194562461739911
0.242313975589794
0.247343867958285
0.233687065075921
0.22211548722428
0.24040449855733
0.250835466291766
0.250393379218277
0.243041210045809
0.23748094751318
0.217619990173911
0.092440581032994
0.259824420884137
0.359574233962654
0.492478749857168
0.6531005505065
0.776797187818179
0.795082200726235
0.754030050863532
0.831873249058853
0.862037051150797
0.841397256149804
0.782917561090393
0.692991473660935
0.59306062820673
0.515612996045039
0.464120084555831
0.275228153149298
0.239639588693779
0.261605198539489
0.327914298432268
0.40195882911277
0.472201250014867
0.514957383125375
0.458646488246514
0.480111152983262
0.495451482717931
0.470811034803594
0.425772636783378
0.381599336571263
0.335772813896329
0.254112941546436
0.272202036867085
0.154623943107439
0.186521305162865
0.235612492172392
0.268011466993731
0.282898898930138
0.30212687668567
0.287938960747125
0.297348642156186
0.314776689167602
0.313870321965646
0.300423778350566
0.284252421448245
0.255059171779318
0.13002318173303
0.191147377140005
0.0840827163815951
0.106980754457245
0.186775564914983
0.245991844459438
0.24334559996398
0.23307423329337
0.223242123615147
0.231774164292553
0.243129889861778
0.249831325358396
0.247130603336046
0.239039525263086
0.216455505796971
0.0752000659333281
0.347319750993929
0.348366598321831
0.467443255416694
0.609166914528523
0.724767740442783
0.772755349480921
0.723288105708294
0.818793068989687
0.875554246915542
0.882874576894472
0.843993016652062
0.738177079686882
0.596983241184766
0.495299117617215
0.483076720636395
0.373228337852882
0.316615705698513
0.274557058944414
0.312954179889396
0.384937046934197
0.430059355462609
0.500739146182497
0.451618443150781
0.491178184890871
0.523599463120065
0.512633994975828
0.456989309059429
0.387015809462743
0.333699433638276
0.270462411153531
0.349867570202302
0.212976870944899
0.221744685369444
0.230502358258749
0.262559905631832
0.282403985624862
0.302868031533686
0.288971563302915
0.307231045217373
0.326838628194023
0.32814455353077
0.307587763799458
0.286617692895237
0.255416785705392
0.144610885995319
0.26610316043912
0.125874723428757
0.14155902185798
0.194561942535125
0.242314585098176
0.247343428488139
0.23368783976504
0.222115665989894
0.240404087773144
0.250835027730135
0.250393099095011
0.243041051590925
0.237480754854043
0.217619845128284
0.0924406836727896
0.259824495683386
0.359574188695366
0.49247908507131
0.653101812712486
0.776797994353894
0.795081935458931
0.754028712542033
0.831871942577075
0.862035601143646
0.841395899310663
0.782916409160866
0.69299011506638
0.593059971136288
0.515612394756437
0.464119571743498
0.275228547830001
0.23963990008244
0.261605292507522
0.327914288396198
0.401959038438173
0.472201294179745
0.514956749799048
0.45864574510952
0.480110042810443
0.495450351229481
0.470809986846563
0.42577204293557
0.381598924756431
0.335772468466686
0.254112580066898
0.272203209203485
0.154623913597196
0.186521577960111
0.23561278198686
0.268011677560827
0.282898664233612
0.302126587188293
0.287938473909817
0.29734792445006
0.314775835753873
0.313868875182828
0.300423303663096
0.284252004906874
0.255058863040283
0.130023031571195
0.191147977500772
0.0840825315465744
0.106980642822818
0.186775610184257
0.245992223124597
0.243345605177673
0.233074522670734
0.223242280820426
0.231773823005038
0.243129520581985
0.249830632014999
0.247130170229863
0.239039222109964
0.216455350900305
0.0752003038379738
0.347319789010132
0.348366558707424
0.467443006579075
0.60916676617848
0.724767778518634
0.772755381575207
0.723288074906183
0.818793007886213
0.875554163678042
0.882874464960923
0.843992917043004
0.738177023705967
0.596983216332508
0.495299051125124
0.483076677990422
0.37322841457546
0.316615704934479
0.274556987863708
0.312954092109137
0.384937014491205
0.43005929490453
0.500739089347554
0.45161840022119
0.491178120777368
0.523599373556697
0.512633910966519
0.456989270664456
0.387015772787182
0.333699399169314
0.270462387142323
0.34986770925908
0.212976863039525
0.221744609789651
0.230502362378491
0.262559957467033
0.282403924835224
0.302868039109827
0.288971541979349
0.307230961450662
0.326838546106871
0.328144492263206
0.307587723024246
0.286617659326638
0.255416767396744
0.144610879863153
0.266103296473249
0.125874684411612
0.141558897387111
0.194561869974194
0.242314668219467
0.24734335726047
0.233687958655071
0.222115699855369
0.240404037745907
0.250834971965734
0.250393070628322
0.243041038948521
0.237480737781383
0.217619831574119
0.0924406927309711
0.457739080953151
0.161296661049102
0.0853567937437914
0.150642161560114
0.239611835468262
0.25711602938495
0.236335934998249
0.206384302272311
0.209021782813147
0.220937676682475
0.224225890228009
0.221210726415227
0.215093064852731
0.196782821699741
0.0546214731059598
0.613188425896696
0.236530216819163
0.0928623392026257
0.134531889374886
0.248488402488223
0.278813067218111
0.249140196600632
0.209048854363528
0.205277925776391
0.217648906046197
0.224200057153846
0.218753532253587
0.21031581183207
0.194440747508001
0.0512084358099676
0.716313004534612
0.314581130246457
0.108831659549581
0.124248691876024
0.266943652515871
0.301840584296731
0.258470946891437
0.21054826518074
0.205808519197921
0.217915094503752
0.224995114296139
0.219697589776107
0.208989952402378
0.194688510508682
0.0515872797033924
0.533946435436345
0.231601871423698
0.108624338309558
0.161509546291637
0.242870900359326
0.259163637130282
0.230727395644635
0.201797333146383
0.214072466831941
0.224997655020383
0.224766277740145
0.215233337136143
0.20988748575412
0.198648542686014
0.0688036196597604
0.672018038352462
0.304406466191559
0.116263166508283
0.14595463313951
0.251486750778535
0.279173024757817
0.241710143471678
0.202511841549754
0.205602516394066
0.219161510302558
0.225084907860324
0.215788065641213
0.205625587105857
0.192232890232197
0.057405847264774
0.730232739121025
0.347508838805341
0.120283797440629
0.130316406057682
0.266703421650996
0.301746014386161
0.261216491118018
0.206535983788822
0.205623208891573
0.218135369595152
0.224953742797882
0.218352767984963
0.207241059715886
0.192829122560304
0.0517934963463199
0.457738960358607
0.161296583605614
0.0853568073884404
0.150642168435187
0.239611828151451
0.257116072671975
0.236335878462926
0.206384248447826
0.209021786609324
0.220937736199756
0.224225934869559
0.221210752757884
0.215093070192466
0.196782815400795
0.0546214377447904
0.613188335185086
0.236530146251256
0.0928623548328008
0.134531908861223
0.248488379926778
0.278813136570342
0.249140136235208
0.20904879893298
0.205277916756485
0.217648949272293
0.224200082569463
0.218753539755343
0.210315797604049
0.194440731163435
0.0512084055935523
0.716312968742209
0.314581089367228
0.108831662051479
0.124248709304175
0.26694365158767
0.301840617394412
0.25847089112562
0.210548212238708
0.205808513927313
0.217915117270215
0.224995115137721
0.219697588561552
0.20898993904097
0.194688498297233
0.0515872579702253
0.53394785088773
0.231602630973378
0.108624048622029
0.161509220924387
0.242870749222165
0.259163012014892
0.230728083460759
0.201797758993495
0.214072337992942
0.224997074332064
0.224766084755072
0.215233378263293
0.209887529788445
0.198648590514403
0.0688038202616801
0.672018842489315
0.304407241945316
0.116263083768414
0.145954334668124
0.251486728853383
0.279172493677229
0.241711216779636
0.202512358017441
0.205602651633197
0.219161173894019
0.225084769839403
0.215788138918524
0.205625744776935
0.192233021963978
0.0574060870179761
0.730232959535334
0.347509228646658
0.120283789875854
0.13031623118187
0.266703576712631
0.301745722870369
0.261216888427123
0.206536278879756
0.205623225964469
0.218135225614679
0.22495370671411
0.218352778992736
0.207241165826712
0.192829206410416
0.0517937318978397
0.457740396226331
0.161297450184313
0.085356696884059
0.150642075029239
0.239611871441498
0.257115715774222
0.236336355848973
0.206384670191643
0.209021752820429
0.220937256313984
0.224225517876354
0.221210474417071
0.215092976171815
0.196782854351912
0.0546218193855241
0.613189402942746
0.236530941964735
0.0928622355217656
0.134531716427522
0.248488561199109
0.278812582765176
0.249140638388071
0.209049229086944
0.205277994487902
0.217648594074301
0.224199847690645
0.218753455976483
0.210315905962814
0.194440876513778
0.0512087296559765
0.716313397163468
0.314581535135928
0.108831669988837
0.124248554473298
0.266943675830913
0.301840357831597
0.258471341539793
0.210548619895192
0.205808560089616
0.217914934127204
0.224995114568992
0.219697589574344
0.208990051518687
0.19468860902272
0.0515874844897035
0.533947991580872
0.231602703759107
0.108624003863529
0.161509173439512
0.242870730442063
0.259162921117743
0.230728184392632
0.201797825547351
0.21407232281352
0.224996990964132
0.224766060961364
0.215233385665684
0.20988753629093
0.198648597343362
0.0688038398309505
0.672018919569256
0.304407321888332
0.116263064545422
0.145954291776843
0.251486728474675
0.279172416215996
0.241711373398862
0.202512437131447
0.205602672287835
0.219161123667986
0.225084751588986
0.2157881481451
0.205625763845859
0.192233037581265
0.057406111923303
0.73023298044074
0.347509269361999
0.120283783383582
0.130316207911188
0.266703602725704
0.301745680000118
0.261216945195897
0.20653632376208
0.205623227688765
0.218135204506905
0.224953701222726
0.218352780800705
0.207241179463448
0.192829216690006
0.0517937573359924
)
;

boundaryField
{
    inlet
    {
        type            calculated;
        value           nonuniform List<scalar> 
24
(
1.41862973697493
1.41862973697493
1.41862973697493
1.41862973697493
1.41862973697493
1.41862973697493
1.41862973697493
1.41862973697493
1.41862973697493
1.41862973697493
1.41862973697493
1.41862973697493
1.41862973697493
1.41862973697493
1.41862973697493
1.41862973697493
1.41862973697493
1.41862973697493
1.41862973697493
1.41862973697493
1.41862973697493
1.41862973697493
1.41862973697493
1.41862973697493
)
;
    }
    outlet
    {
        type            calculated;
        value           nonuniform List<scalar> 
156
(
0.480476252350698
1.00689866037635
1.19132006613883
1.24170013071789
1.2143368514116
0.770745430547255
0.73270125200041
1.18684461242173
1.18964345448352
1.16081064468079
1.13802037493632
1.11075258747108
1.04356068345489
0.995195148099718
0.975929109959493
0.658008124310898
0.357348995132611
1.24607359618105
1.22312608634373
1.18013963562183
1.18418560976748
0.697818144340038
1.18650025415837
1.18846933763915
1.16329324727496
1.13705448692788
1.09717188957191
1.03752113779447
1.0161765664526
0.542652450799392
0.480476181360882
1.00689838289099
1.19131973647189
1.24169985233811
1.21433683231957
0.770745438843656
0.732701356679253
1.18684464687549
1.18964348698494
1.16081068825483
1.13802047067817
1.11075268438848
1.04356066291193
0.995195101888615
0.975929082388099
0.658008725345948
0.357348560998972
1.24607524850792
1.22312921662009
1.18014175061904
1.18418658971214
0.697817424924114
1.18650036370935
1.18846940609401
1.16329300614141
1.13705388263264
1.097171598228
1.03752164778769
1.01617693435384
0.542651893887142
0.480476903627831
1.00690163664682
1.19132338513064
1.24170293124128
1.21433729133249
0.77074534374409
0.732700361951571
1.18684444260391
1.18964320215861
1.16081033694276
1.13801965455136
1.11075180915677
1.04356092744549
0.995195602151443
0.975929392821972
0.658008729407317
0.357348499593729
1.24607538731327
1.22312953828091
1.18014201076405
1.18418672098088
0.697817329312652
1.18650039029295
1.18846940645951
1.16329295987337
1.13705381230027
1.09717155099309
1.03752169195022
1.01617697224078
0.542651837394364
0.625059542655749
0.435106932628967
0.315050260761226
0.261002961608137
0.238545968974874
0.230623470634335
0.228520561905215
0.590363852292236
0.440943822073061
0.313800012656907
0.260582110251302
0.238033575421484
0.230340189094639
0.22895506849191
0.625059613896802
0.435107035268235
0.31505034763783
0.261003012663806
0.238545983704959
0.230623468052432
0.2285205630278
0.590363035681305
0.440943039514255
0.313799379271103
0.260581735459995
0.238033475350844
0.230340194030093
0.228955049116101
0.625058819004491
0.435105930905373
0.315049433471506
0.261002473069197
0.238545819514876
0.230623484331569
0.228520548944029
0.590362953487513
0.440942957477413
0.31379931265736
0.260581696388464
0.238033466231999
0.230340195590929
0.228955046967136
0.751501170492841
0.548096503064678
0.443469843738214
0.483699306494301
0.874857861740246
0.68870898055071
0.661628444988289
0.816346053391609
0.751501019308879
0.548096677161984
0.443469633442536
0.483699250041034
0.874857539259111
0.688709761573683
0.661629635522511
0.816348392123023
0.751502597557371
0.548094781998741
0.443471981288506
0.483700096151022
0.874857450139036
0.68870977404706
0.661629745739243
0.816348607875187
)
;
    }
    sides
    {
        type            calculated;
        value           nonuniform List<scalar> 
84
(
1.41898268692547
1.41501989453136
1.40579556722989
1.41898237717927
1.41501978788171
1.4057953918957
1.41898268853346
1.41501989643024
1.40579557036734
1.41898237109826
1.41501978828358
1.40579539378765
1.41898266092738
1.41501986388913
1.40579553904599
1.41898237076458
1.41501978842168
1.40579539354468
1.39202376650651
1.37535027208485
1.35762948917235
1.39202296051207
1.37534935593523
1.35763048374096
1.39202377496703
1.3753502932366
1.35762949124796
1.3920229241476
1.37534928158783
1.35763039314482
1.39202368330649
1.37535001817997
1.35762945554253
1.39202292085459
1.37534927571711
1.35763038641746
1.33906765710235
1.3390686457235
1.33906765811425
1.33906860180198
1.33906764420228
1.33906859752549
1.31965264965548
1.31965378795229
1.31965264878705
1.31965375443484
1.31965266360419
1.31965375264594
1.29938032724959
1.29937982767601
1.29938033052825
1.29937964231096
1.29938030301898
1.2993796146214
1.27809247363487
1.27809318313832
1.27809247931721
1.27809323240661
1.27809241306096
1.2780932415998
1.25560375470048
1.25560152330969
1.25560376933804
1.25560123035111
1.25560368928463
1.25560116792578
1.22890520535738
1.22890682770915
1.22890522842026
1.22890648123199
1.22890495698952
1.2289064597211
1.20069564915175
1.20067443592627
1.20069567100041
1.20067436844321
1.20069553037579
1.20067436704153
1.16395896712441
1.16398174396491
1.16395897472894
1.16398177741676
1.16395890890811
1.1639817847157
)
;
    }
}


// ************************************************************************* //
