/*--------------------------------*- C++ -*----------------------------------*\
  =========                 |
  \\      /  F ield         | OpenFOAM: The Open Source CFD Toolbox
   \\    /   O peration     | Website:  https://openfoam.org
    \\  /    A nd           | Version:  11
     \\/     M anipulation  |
\*---------------------------------------------------------------------------*/
FoamFile
{
    format      ascii;
    class       volScalarField;
    location    "0.0001100002";
    object      T;
}
// * * * * * * * * * * * * * * * * * * * * * * * * * * * * * * * * * * * * * //

dimensions      [0 0 0 1 0 0 0];

internalField   nonuniform List<scalar> 
900
(
1900.13907921782
1898.57401423021
1894.91647942218
1900.13151095753
1898.56845103179
1894.91133275367
1900.12478590399
1898.56418470005
1894.90731240482
1900.13895697662
1898.57397198716
1894.91640952422
1900.13140919468
1898.5683738416
1894.91120209047
1900.12479714887
1898.56421409298
1894.90734086069
1900.13907985232
1898.57401498097
1894.91648066922
1900.13151147265
1898.56845168689
1894.91133379828
1900.12478600034
1898.56418477959
1894.90731246814
1900.13895457458
1898.57397214833
1894.91641028402
1900.13140756101
1898.56837469736
1894.91120366736
1900.12479463642
1898.56421078167
1894.90733570816
1900.13906895925
1898.57400211032
1894.9164682069
1900.13150256369
1898.56844054303
1894.9113223275
1900.12478434319
1898.56418364597
1894.90731178386
1900.13895444272
1898.57397220295
1894.91641018828
1900.13140746113
1898.56837475119
1894.91120368532
1900.12479449674
1898.5642105791
1894.9073353637
1889.41632350641
1882.69565944933
1875.47807466427
1889.41061672082
1882.69232008647
1875.47648866962
1889.4093767024
1882.69151525045
1875.47616651509
1889.41599542411
1882.69529468645
1875.47848457456
1889.41051939277
1882.69180630695
1875.47669713734
1889.40940527742
1882.69151872971
1875.47622253385
1889.41632705583
1882.69566804755
1875.47807534632
1889.41061948874
1882.69232833316
1875.47649035627
1889.40937675637
1882.69151571607
1875.47616659682
1889.41597997807
1882.69526408414
1875.47844717859
1889.41051280652
1882.6917880995
1875.47668726852
1889.40941614154
1882.69149967117
1875.47620342036
1889.41628827003
1882.69555638794
1875.47806193971
1889.41059248206
1882.69222009413
1875.47646625667
1889.40937864092
1882.6915089247
1875.47616567978
1889.41597859887
1882.69526166825
1875.47844441253
1889.41051174176
1882.69178657674
1875.47668662883
1889.40941654367
1882.6914980442
1875.4762018107
1867.83275462226
1867.83290107901
1867.83297612127
1867.83316224224
1867.83277819349
1867.83273801919
1867.83275501016
1867.83290114395
1867.83297579426
1867.83314369612
1867.83276645606
1867.83270059915
1867.83274908314
1867.83290558772
1867.83297655128
1867.83314190058
1867.83276568522
1867.8326958011
1859.73977889581
1859.73900631342
1859.73923367902
1859.74023683506
1859.7395413595
1859.73924693434
1859.73977855313
1859.73900504098
1859.73923288612
1859.74022286225
1859.73953175443
1859.73924005078
1859.73978449188
1859.73902055081
1859.73924208917
1859.74022213586
1859.73953125354
1859.73923915605
1851.18248069234
1851.18377725589
1851.18391131832
1851.18223917551
1851.18301590573
1851.18384010571
1851.18248208222
1851.18377793749
1851.18391209891
1851.18216025407
1851.18295662303
1851.18380321951
1851.1824706451
1851.18376989276
1851.18390848316
1851.18214825164
1851.1829485603
1851.18379803726
1842.0768666918
1842.07492125049
1842.07539294075
1842.07709766939
1842.07589182379
1842.07591731757
1842.07686928928
1842.07492147502
1842.07539255662
1842.07712309569
1842.07589478929
1842.07592160432
1842.07683956819
1842.07491826093
1842.07539054006
1842.07712701706
1842.07589739446
1842.07592387295
1832.31606326464
1832.31957777419
1832.31924076474
1832.31500935288
1832.31726896197
1832.31854884738
1832.3160698107
1832.3195848232
1832.31924409778
1832.31488425393
1832.31718424362
1832.3184763862
1832.31603374709
1832.31953223423
1832.3192217629
1832.31485720445
1832.31716355899
1832.3184661747
1820.5691267553
1820.56320354213
1820.56024818601
1820.56992080066
1820.5658532484
1820.56046264344
1820.56913704717
1820.56320527512
1820.56024942343
1820.56976438949
1820.56571763544
1820.56045657185
1820.56901466057
1820.56316684968
1820.56022895157
1820.56975501144
1820.56571047841
1820.56045677664
1807.86759357581
1807.85386601797
1807.84743421924
1807.85770434238
1807.84989484863
1807.84700458599
1807.86760287079
1807.85387053771
1807.84743733769
1807.85767165504
1807.8499160984
1807.84701493797
1807.867542097
1807.85383306096
1807.84740483731
1807.85767138252
1807.84991968895
1807.84701642943
1791.02105581143
1791.03229973134
1791.0558912287
1791.03254860039
1791.04199065167
1791.05704285747
1791.02105876082
1791.03229934936
1791.05589309441
1791.03255982032
1791.04202434784
1791.0570481263
1791.02103137265
1791.03230670502
1791.05587020401
1791.03256286866
1791.04202951019
1791.05704953012
1899.99692552346
1899.9856026821
1899.97915378374
1899.99693410704
1899.98564060128
1899.97914767297
1899.99692549253
1899.98560252741
1899.97915371519
1899.99693445952
1899.98564156697
1899.97914860663
1899.99692598544
1899.98560491475
1899.97915491446
1899.99693448353
1899.98564162414
1899.97914867266
549.38335273984
828.136887421902
744.228522046987
583.649718475271
483.057256877576
458.397550645617
477.63655032962
443.796510186048
426.049269153359
418.384614178109
436.081244851212
474.32390945918
503.271282439159
532.325796032602
545.242257647431
486.727455304572
1166.67710173921
1359.02382968222
1175.210122473
977.765115599037
834.282413939853
750.986712303563
813.874486893335
786.701940257249
745.565800142525
760.983474817225
816.067649672497
857.783404933923
848.923682908382
785.894637949675
420.562903427981
1120.75035197574
1563.66330224155
1533.28886516785
1414.44714081574
1311.33369439346
1233.30008588221
1231.24725521003
1183.84692399217
1109.28026594929
1091.27256171321
1104.85266280262
1111.59727039247
1063.50867854329
1082.61021612473
644.219749009021
852.015211127241
1244.92477161267
1636.73236501723
1644.17179503871
1605.04978052086
1549.87819479556
1503.83000766345
1470.43021108681
1424.80747958124
1390.67459183465
1368.74393566023
1342.87277471069
1261.33897677601
1307.82123369464
567.441338142262
939.028540043498
862.221514574424
623.355054717681
497.336657345667
475.782725134582
504.697762018089
452.353885624741
421.713765350548
400.82357364747
403.995661703442
438.156005276335
498.566642114878
568.833592512163
578.333314051472
523.116923406579
1084.41629622881
1325.4015365476
1165.56596707926
990.619466260562
914.697950205845
776.397609259
812.098196025778
778.198305333176
714.853534213645
702.09403498342
746.607104655155
832.97087675446
865.190412544137
774.502120458895
511.375909028208
1183.76085985627
1462.29300908888
1441.16979323018
1391.26713510539
1330.05882976278
1236.97892161376
1216.25954825633
1172.3085726872
1088.76961415764
1041.62721259353
1050.62720362144
1092.61950848668
1076.10900435669
1087.8572872557
890.815697291436
1035.18548656481
1271.36251553499
1525.19111254153
1609.92546546584
1586.95598911951
1536.21983527333
1485.42583536051
1470.57062450362
1417.01989881756
1368.37372265898
1345.28593423431
1336.56395479055
1277.56554116499
1310.30922337875
549.3832523009
828.136482487774
744.228162245381
583.649638824866
483.057277624434
458.397571501172
477.636516213291
443.796462626997
426.04922196543
418.384572008108
436.081236697736
474.323880740743
503.271219566154
532.325722348508
545.242194279537
486.727464347735
1166.6768478953
1359.0234600658
1175.20997734631
977.765139790544
834.282474930359
750.986663029592
813.874339848792
786.701780715397
745.565648089198
760.983408461523
816.067461746278
857.783149012496
848.923421817201
785.894450023623
420.562970588957
1120.75062038886
1563.66317351835
1533.28876075346
1414.44711479104
1311.33381909246
1233.30006372949
1231.24710973202
1183.84673935034
1109.28009601393
1091.27246098733
1104.85228273919
1111.59688492583
1063.50830518437
1082.60991112167
644.219821402046
852.01551553407
1244.92490595798
1636.73234468726
1644.17174408293
1605.04986154801
1549.87815900124
1503.82988873268
1470.43017350359
1424.80742780398
1390.67442406502
1368.7435974267
1342.87241598219
1261.3386516275
1307.82097669515
567.441020139295
939.030624951919
862.227466637205
623.358249350065
497.337767591375
475.78345135261
504.698409718769
452.354275393044
421.714191131354
400.823901324217
403.995824755859
438.156151764455
498.567153311196
568.834502879562
578.334109416577
523.116187748173
1084.41773051028
1325.40469884277
1165.56915442064
990.621924097804
914.698910793889
776.397916138053
812.099021841657
778.199608726008
714.854892083565
702.094852941384
746.608193646849
832.972585046596
865.192523094316
774.503504629329
511.374764064424
1183.76121429553
1462.29279939908
1441.17128370938
1391.26969793884
1330.05912033486
1236.97886875112
1216.2599381798
1172.30963426221
1088.77134393474
1041.62841737238
1050.62897337757
1092.62195827992
1076.11173249454
1087.85950114223
890.814158209085
1035.18434978691
1271.3588477213
1525.1902850205
1609.92670020001
1586.95538315626
1536.22066399577
1485.4261589149
1470.57075285703
1417.0208914738
1368.37482779594
1345.28764191491
1336.56593336246
1277.56780662307
1310.31110763661
549.38414100213
828.140359032054
744.231857883047
583.650687634736
483.057265869868
458.397482358774
477.63692656304
443.796972446536
426.049720956943
418.385041310645
436.081395170287
474.324226271829
503.271906926086
532.326539662867
545.242901467511
486.727370772655
1166.67977022807
1359.02750158658
1175.21193354476
977.765443036319
834.282256579509
750.987307372821
813.875830045126
786.703404051867
745.567267144293
760.984249909778
816.069427821492
857.785803265231
848.926176505675
785.896471320655
420.562330633444
1120.74804543373
1563.66477070107
1533.29023584601
1414.44792713286
1311.3331722037
1233.30052811051
1231.24853902031
1183.84856234794
1109.28189635228
1091.27368683323
1104.85607784688
1111.60079143357
1063.51219074784
1082.61311681938
644.219031359905
852.012227822263
1244.92310085526
1636.73272956837
1644.17247284644
1605.04940880068
1549.8786626741
1503.83091352572
1470.43062741704
1424.80807197247
1390.67612649072
1368.74686965525
1342.8759314653
1261.34201560211
1307.82369265987
567.440954450134
939.03086673579
862.228191143688
623.358651043397
497.337911779915
475.783553012432
504.698496624404
452.354320252643
421.714226478952
400.823925080778
403.995834024764
438.156156846885
498.567196866677
568.834590283395
578.334189442204
523.116072583011
1084.41786784804
1325.40507055384
1165.56954583339
990.622242668039
914.69903323056
776.397943939225
812.09910174598
778.199728118878
714.855009789561
702.094909091256
746.608280826422
832.972744388477
865.192730725731
774.503649808614
511.374603991759
1183.76122055453
1462.29271996603
1441.17146052792
1391.27002793296
1330.05914646095
1236.97885165801
1216.2599677072
1172.3097157658
1088.77149412269
1041.62850344548
1050.62912306896
1092.62219608075
1076.11200710073
1087.85973414436
890.813952689841
1035.18421075162
1271.35832178667
1525.19020080482
1609.92686872873
1586.95528908735
1536.22079945817
1485.42620907034
1470.57074314047
1417.02097025884
1368.37492123385
1345.28780453752
1336.56613274359
1277.568041884
1310.31130408421
1423.96386292247
939.302284823216
865.813600198301
1463.10610044993
1687.21287315879
1695.65072912097
1632.66547929848
1556.89248971599
1544.24874747027
1556.3933300228
1542.72226597232
1519.21869863759
1489.97281469124
1400.96638548905
1431.32771225785
1474.33334998503
1059.0726785706
830.995871817216
1138.37139817811
1601.18360063266
1679.59997874271
1621.35800639875
1545.10985156631
1531.45351478425
1556.52480104834
1566.79348293645
1554.89702291169
1534.53647113211
1464.19425140642
1480.66273043387
1529.17217079554
1159.24830106552
875.570714212127
936.424540977563
1466.397987146
1651.13133874711
1591.75900402106
1511.99413146364
1513.81908780878
1550.62813875468
1568.31892103882
1558.57205453771
1540.31652134493
1483.20485703297
1494.17836658293
1479.87703346045
1097.55343638794
977.700994315529
1347.10734913269
1627.92651617766
1675.11588626474
1609.68223475321
1532.54381929966
1557.48533007708
1556.94590027561
1543.84042670625
1505.90777627671
1478.917649525
1411.28679175409
1434.4152287736
1517.93729280757
1166.34348939452
913.063512126948
1119.62406896765
1547.80929305239
1664.65266906934
1599.24699692309
1518.26166024353
1531.77883412957
1559.83383715684
1569.79419262474
1547.53397457804
1522.05333680453
1455.6466669005
1482.41674007505
1538.66120689171
1198.88574026096
914.692090509566
960.378473430792
1462.00742894372
1651.33905018458
1595.63705418304
1500.84005569182
1509.72314113974
1551.82942831913
1568.23759572838
1555.54330058227
1535.58291796472
1476.53897763722
1491.36897285601
1423.96381898736
939.302109492579
865.813788757516
1463.10612188805
1687.21292474738
1695.65088462978
1632.66541618093
1556.89235105659
1544.24883949175
1556.39344386966
1542.72228473752
1519.21859588067
1489.97264419557
1400.96620657022
1431.32762163585
1474.33331038027
1059.0725995233
830.995924373361
1138.37154979591
1601.18376735399
1679.60020039019
1621.35797248591
1545.10980584046
1531.45355548879
1556.52493768997
1566.79352307377
1554.89702112436
1534.53643029788
1464.19419134369
1480.66274826603
1529.17214906298
1159.24826795022
875.570703244668
936.424624283808
1466.39824063881
1651.13153727617
1591.75899123536
1511.99411585034
1513.81907954874
1550.6282214978
1568.31893115708
1558.57205243505
1540.31653020219
1483.2048614076
1494.17837911878
1479.87713012684
1097.55443230123
977.697564797515
1347.10543543707
1627.9230282286
1675.11362831167
1609.68304723083
1532.54455082719
1557.48457737696
1556.94536680127
1543.84060312626
1505.90865482332
1478.91877283816
1411.28808618591
1434.41582169028
1517.93758220451
1166.34426205587
913.062959560092
1119.62159516817
1547.80607864259
1664.6504733125
1599.24811627873
1518.26253427945
1531.77865180402
1559.83300859549
1569.79397431354
1547.53425238482
1522.05373651253
1455.64707262969
1482.4166827142
1538.66139459452
1198.88599495878
914.692053828283
960.377329856336
1462.00568362121
1651.33726057429
1595.63720693783
1500.84043623514
1509.72326538145
1551.82887415889
1568.23747493732
1555.54327798683
1535.58280806461
1476.53892635141
1491.36875339622
1423.96432987936
939.303997094026
865.811863530297
1463.10555326075
1687.21238152846
1695.64954668125
1632.66593743757
1556.89341394897
1544.24814607039
1556.39254585261
1542.72219157042
1519.2195554925
1489.97425848991
1400.96804654627
1431.32862827495
1474.33377214848
1059.07350471307
830.995415832581
1138.36954402134
1601.18193182573
1679.59830742061
1621.35821402482
1545.11013824534
1531.45325992382
1556.52382769843
1566.79316466891
1554.89701898284
1534.5367851225
1464.19480052717
1480.66263130581
1529.17240317931
1159.24864516131
875.570889602259
936.423789520089
1466.39582966262
1651.12983276576
1591.75903578361
1511.99421536538
1513.81913734593
1550.62755829036
1568.3188615513
1558.57205613317
1540.31643721037
1483.20483536622
1494.17826809134
1479.87713796051
1097.55454763321
977.697104997142
1347.1051983594
1627.92260736715
1675.1133239661
1609.683177949
1532.54466597487
1557.48446398621
1556.945279513
1543.84061289857
1505.90874732582
1478.91889414539
1411.28822575781
1434.41587544178
1517.93761086129
1166.34434659755
913.062876653029
1119.62128130623
1547.80568389645
1664.65017325057
1599.24829199834
1518.26267250534
1531.77862687894
1559.83288574498
1569.7939432767
1547.53428398854
1522.05378198292
1455.64711546781
1482.41666967745
1538.6614138528
1198.8860184536
914.692037304466
960.377187055199
1462.00547247992
1651.33701653174
1595.63723695532
1500.84049876349
1509.72328593727
1551.82879349731
1568.23745703379
1555.54327652341
1535.58279633762
1476.53891901482
1491.36872985314
)
;

boundaryField
{
    inlet
    {
        type            timeVaryingMappedFixedValue;
        fieldTable      T;
        value           nonuniform List<scalar> 
24
(
1899.99981999952
1899.99981999952
1899.99981999952
1899.99981999952
1899.99981999952
1899.99981999952
1899.99981999952
1899.99981999952
1899.99981999952
1899.99981999952
1899.99981999952
1899.99981999952
1899.99981999952
1899.99981999952
1899.99981999952
1899.99981999952
1899.99981999952
1899.99981999952
1899.99981999952
1899.99981999952
1899.99981999952
1899.99981999952
1899.99981999952
1899.99981999952
)
;
    }
    outlet
    {
        type            freestream;
        freestreamValue uniform 300;
        value           nonuniform List<scalar> 
156
(
300
300
300
300
300
457.502763948354
477.212398197151
300
300
300
300
300
300
300
300
300
938.918291554327
300
300
300
300
504.263561986304
300
300
300
300
300
300
300
577.977686996467
300
300
300
300
300
457.502784608133
477.212363776058
300
300
300
300
300
300
300
300
300
938.920371300464
300
300
300
300
504.26421204325
300
300
300
300
300
300
300
577.978479874132
300
300
300
300
300
457.502695720515
477.212776239035
300
300
300
300
300
300
300
300
300
938.920612825679
300
300
300
300
504.264299384814
300
300
300
300
300
300
300
577.9785596283
545.811144060372
784.152475017415
1082.46607840375
1307.9129310476
1431.06999007141
1480.23656307914
1493.88911057132
577.977686996467
774.158376934911
1087.67051995845
1309.98274888332
1434.03404768083
1482.08031497875
1491.0703360126
545.811080872918
784.15228879516
1082.46577517412
1307.91267416883
1431.06990124813
1480.23657819133
1493.88910192974
577.978479874132
774.15975396383
1087.67272859691
1309.98464139225
1434.03464993243
1482.08027675089
1491.07046572341
545.811785923854
784.154292688516
1082.46896354569
1307.9153885113
1431.07089034444
1480.23648713025
1493.88920628362
577.9785596283
774.159898377823
1087.67296105331
1309.98483884708
1434.03470480817
1482.08026592751
1491.07048014107
300
300
300
300
300
300
300
300
300
300
300
300
300
300
300
300
300
300
300
300
300
300
300
300
)
;
    }
    sides
    {
        type            zeroGradient;
    }
}


// ************************************************************************* //
