/*--------------------------------*- C++ -*----------------------------------*\
  =========                 |
  \\      /  F ield         | OpenFOAM: The Open Source CFD Toolbox
   \\    /   O peration     | Website:  https://openfoam.org
    \\  /    A nd           | Version:  11
     \\/     M anipulation  |
\*---------------------------------------------------------------------------*/
FoamFile
{
    format      ascii;
    class       volVectorField;
    location    "0.0001100002";
    object      U;
}
// * * * * * * * * * * * * * * * * * * * * * * * * * * * * * * * * * * * * * //

dimensions      [0 1 -1 0 0 0 0];

internalField   nonuniform List<vector> 
900
(
(0.0342640495813454 0.0593125798922187 682.134199267568)
(0.0312740636997884 0.0541503820768739 684.515772444728)
(0.0249705914990836 0.0431069105442341 690.09076342297)
(0.01632371761708 0.0282395439101743 682.148166965438)
(0.0148720238143609 0.0257411955237422 684.522531612675)
(0.0115528095524672 0.0198708352007127 690.092855894867)
(0.0128769182762221 0.0222658913154267 682.183694290422)
(0.0116427930174199 0.0201521200064079 684.548454295178)
(0.00896782785718008 0.0153943129386961 690.110208611979)
(0.0687761529349794 -1.53669981725486e-06 682.134592274806)
(0.0629263034718875 1.67388420764535e-06 684.516056400966)
(0.0503917786763293 -2.1361447156153e-05 690.091013864874)
(0.0328966024030362 -1.51860560075322e-06 682.148501179626)
(0.0300564873996818 1.71000847418787e-06 684.522730422569)
(0.0234706393003803 -2.12298880639538e-05 690.092869180766)
(0.025814740333506 -1.49227157649655e-06 682.183784265852)
(0.0233671330774926 1.78114128588787e-06 684.548572081473)
(0.0179951854469281 -2.08595717631199e-05 690.110325468676)
(0.0342638069908932 -0.0593152285645534 682.134195533285)
(0.0312733497820787 -0.0541463073331053 684.515768553326)
(0.0249693457652182 -0.0431480970534512 690.090759772497)
(0.0163233202830946 -0.0282418921031476 682.14816354308)
(0.0148711381755921 -0.0257368414692658 684.522528210638)
(0.0115514785555275 -0.0199116631621969 690.092853098096)
(0.0128766656649857 -0.0222687412885329 682.183692303859)
(0.0116422947849916 -0.0201483547780732 684.548452162585)
(0.00896702024242911 -0.0154355290331169 690.110206809625)
(-0.0343589519516556 -0.0595447100641955 682.134627513892)
(-0.0314498253185259 -0.0544803289522357 684.516086677266)
(-0.0250947563325874 -0.0436020750329064 690.091038197024)
(-0.0164201725683608 -0.0284731042548802 682.148535196358)
(-0.0150162539411061 -0.0260145520337377 684.522762851)
(-0.0116330167337371 -0.0202811725875762 690.0928978356)
(-0.0128803380815394 -0.0223408761593744 682.183808369539)
(-0.0116779924824742 -0.0202282736720704 684.548593859891)
(-0.00890314244527131 -0.0155471237932797 690.110343946125)
(-0.0684798836805443 -1.53629237657676e-06 682.134255448347)
(-0.0625398867352426 1.42136969027631e-06 684.51583121975)
(-0.0497581973520531 -2.16804688979051e-05 690.090812667406)
(-0.0326051555169354 -1.51989029856734e-06 682.148217851601)
(-0.0297420096521339 1.41253206292681e-06 684.522581809977)
(-0.0229307776071891 -2.15773407597925e-05 690.092892848197)
(-0.0257003812400347 -1.64460450723542e-06 682.183723782523)
(-0.0232770145062388 1.45201999119246e-06 684.548485117451)
(-0.0177509156826684 -2.1304838322103e-05 690.110235903518)
(-0.0343588964173421 0.0595415367346628 682.134629837557)
(-0.0314495485902631 0.0544832032297685 684.516088636251)
(-0.0250946567464921 0.0435591603015119 690.091039587188)
(-0.0164201399648233 0.0284700069500018 682.148537431214)
(-0.0150159373482296 0.0260174289203135 684.52276495387)
(-0.0116326379980446 0.0202380385943536 690.092899641204)
(-0.0128802937797305 0.0223378138309932 682.183809992255)
(-0.011677825146596 0.0202315485602606 684.548595397214)
(-0.00890296623329763 0.0155050999072518 690.110344988746)
(0.0148212378809419 0.0258944887224624 698.490801394962)
(0.00497657855083786 0.00865129820279767 708.782874309176)
(0.00240078540494853 0.00365131072329955 719.864088195146)
(0.00845276383440134 0.0148366744337703 698.488062736385)
(0.00162324153356356 0.00283855079213964 708.779208158897)
(0.000413299326486091 0.00019567472617724 719.860372912555)
(0.00508288196931912 0.00903690901694748 698.49319011211)
(0.00208611900510937 0.00380008579654611 708.77543864319)
(0.000717520983749386 0.000825646396623656 719.854715448155)
(0.0297759904367437 4.26865847932074e-05 698.491391797197)
(0.0130270667867728 2.08229858766527e-05 708.784164584259)
(0.00450029750271881 -9.78655869771124e-05 719.863738206465)
(0.0172566928761633 4.27727489967916e-05 698.48822926665)
(0.00708314801624261 2.08740441365682e-05 708.779136320999)
(0.000540947733208158 -9.72047562925463e-05 719.859758651614)
(0.0103223103534604 4.1718491471067e-05 698.493210613989)
(0.00460594246537289 2.75789262112135e-05 708.774593585926)
(0.00105166877201741 -9.86289943042778e-05 719.85450525619)
(0.0148205700477062 -0.0258097229150779 698.490791993635)
(0.00496842803459352 -0.0085992905719708 708.782857863324)
(0.00239482917891114 -0.00384570057823775 719.864084455313)
(0.00845006825866131 -0.0147494161688992 698.488056692367)
(0.0016105251663248 -0.00277849383017808 708.77919978074)
(0.00040437383925116 -0.000385702237731461 719.860374227774)
(0.00508277975226567 -0.00895419896231586 698.493189540428)
(0.00208202806448033 -0.0037433774747503 708.775440477994)
(0.000715044020996148 -0.00101943270806359 719.854718864806)
(-0.0150550535620583 -0.0258120780515621 698.491434600462)
(-0.00654756691843928 -0.011239822026171 708.784223205796)
(-0.00198949508060061 -0.00382550540815036 719.863801781646)
(-0.00880140609574057 -0.0149825819839075 698.488270510579)
(-0.00358880372977696 -0.0061180801464064 708.779211806583)
(-2.41050860470144e-05 -0.000402845161473854 719.859805706456)
(-0.00533394751087041 -0.00899530596493509 698.493245916348)
(-0.0024963394463207 -0.00405677140504947 708.774641481836)
(-0.00028253159873438 -0.000884684956630355 719.854518614048)
(-0.0299924310726406 4.176370113059e-05 698.490900522356)
(-0.0101889130243199 1.88621199746505e-05 708.783075424322)
(-0.0042429735965818 -0.000101594054648138 719.864143049585)
(-0.0172579133474342 4.12695507693156e-05 698.488125564173)
(-0.00359308266254596 1.89350115291097e-05 708.779313660434)
(-0.000320386293014888 -0.000102102683012179 719.860363478805)
(-0.010506916888974 4.1211745589414e-05 698.493202457848)
(-0.0045636387479651 2.46153035441609e-05 708.775420590805)
(-0.000940244523952219 -9.87577929595366e-05 719.854681920427)
(-0.015053373412462 0.0258944103174112 698.491438698043)
(-0.00654527972267788 0.0112774925927163 708.784228391312)
(-0.00198798818548034 0.00362849818247549 719.863806908367)
(-0.00880024951570925 0.0150659961641484 698.488274389886)
(-0.00358773235961337 0.00615795282150798 708.779217859062)
(-2.2399321077328e-05 0.000206718842440867 719.85980939562)
(-0.00533356356973939 0.00907799893876021 698.493248085923)
(-0.00249499059039165 0.00410991480231739 708.774644843762)
(-0.000284123638829953 0.000690829555921511 719.854519537408)
(-0.00160449562997599 -0.00136729008545554 731.631318491076)
(-0.00158555961579422 -0.00131107908708136 731.628463143792)
(-0.00135507899062582 -0.000844950307249864 731.624230729783)
(-0.00218759161405304 0.000150806415997298 731.631168502251)
(-0.00246916439217725 0.00015194971052153 731.628266877929)
(-0.00176649263393809 0.000152445733700556 731.624103215139)
(-0.00160909759443648 0.00166865429819034 731.631317265717)
(-0.00159003205323056 0.00161420920529543 731.628463436475)
(-0.00135809335347254 0.00115033243392713 731.624231401999)
(-5.90713445898836e-05 0.00139120482550606 731.631181224665)
(7.20054507385066e-05 0.00164382052928992 731.628271803841)
(-0.000322807986809934 0.000972398376380441 731.624117198371)
(0.00092085201086098 0.000145949684217886 731.631342365073)
(0.000846471253856894 0.000147151367906614 731.62846555858)
(0.000330559657139873 0.000149740551283502 731.624224595294)
(-5.77367346890533e-05 -0.00109296098939155 731.631182129922)
(7.48256843774276e-05 -0.00134573914746304 731.628272030843)
(-0.000323517364339546 -0.000666679986412491 731.624119403723)
(0.00215434475569569 0.0038358309111745 744.095727554007)
(0.000940456534231089 0.00169014610609627 744.094156229232)
(0.000435924097792256 0.000806882703321728 744.091567768422)
(0.00120715380595844 -5.25809719848428e-05 744.0953067321)
(-0.000607218018734227 -5.17678054741586e-05 744.094191649069)
(5.46808689689185e-05 -4.88499169017399e-05 744.091729431027)
(0.0021625118669911 -0.00393577475196225 744.095729017187)
(0.000945512043380758 -0.001788927537701 744.094156708751)
(0.000437701325927653 -0.000902962208647941 744.091566970232)
(-0.000638740013407122 -0.00117779646384251 744.095337061841)
(0.000264189781161557 0.000402724889278498 744.09420204673)
(-9.20093169786472e-05 -0.000155874730392294 744.091728670444)
(-0.00443008604237374 -4.19486669956306e-05 744.095719106473)
(-0.00199210833164061 -4.42897815025038e-05 744.094154564701)
(-0.00100820723758539 -4.66770230354132e-05 744.091575178347)
(-0.000644716995542457 0.00108381325060187 744.095340116355)
(0.000259112636087901 -0.000496655421486565 744.094203273786)
(-9.40007307693617e-05 6.14738379589716e-05 744.091728414529)
(-0.00470546141532809 -0.00985169102110791 757.302874826574)
(-0.00243233541944033 -0.00582059862747476 757.30316372692)
(-0.000791532396922653 -0.0028551113553596 757.299778890859)
(-0.00494805628707388 -2.18823600684848e-05 757.30370852291)
(-0.00187678120901162 -2.11239069159611e-05 757.30260686039)
(-0.000718013277066235 -2.09760723846848e-05 757.30007653301)
(-0.00471710879953468 0.00979936800437667 757.302869694555)
(-0.00244187097524136 0.00577192295976177 757.303159422141)
(-0.000794109298284022 0.00281010564967878 757.299776166062)
(0.00372532660583655 0.00502435389711399 757.303806714156)
(0.00216444630737811 0.00233422395008619 757.302672559144)
(0.00156612757511655 0.00129025847027574 757.300099394107)
(0.0120967856679217 -3.8084294379887e-05 757.302933581609)
(0.00745242424639559 -3.43242279782488e-05 757.303212761451)
(0.00407602254464346 -2.39073718213813e-05 757.299803742443)
(0.00372733964992859 -0.00507355002198576 757.303818527768)
(0.00216614659482007 -0.00238086577849559 757.302677932087)
(0.00156534052840952 -0.00132995980559159 757.300100958726)
(0.0061574306242949 0.0132630773718796 771.333148807354)
(0.00329814761750171 0.00819759076618784 771.331724862358)
(0.000378881990378313 0.0031656149242015 771.332009627048)
(0.00510239473306533 7.11526835811413e-05 771.33210395519)
(0.00152434851442243 7.09412026677616e-05 771.332540322994)
(-5.18672471846509e-05 7.71168882009693e-05 771.333154345671)
(0.00617444316806241 -0.0131105207949033 771.333141813636)
(0.00330898258062343 -0.00804306987505143 771.331718467623)
(0.000385896524332543 -0.00300422962447022 771.33201060655)
(-0.00449946515111441 -0.00563812291222645 771.332111253794)
(-0.0027160654065433 -0.00254565566539429 771.332547380411)
(-0.00201479980618988 -0.00117640513972731 771.333119013404)
(-0.0163255708825679 9.3014000161529e-05 771.333222535655)
(-0.0105707427162686 8.924361861755e-05 771.33179184291)
(-0.004846946520993 8.4170304088338e-05 771.33199186759)
(-0.00450993460255613 0.00580111965365663 771.332109794081)
(-0.00272709279035684 0.00270881265500933 771.332546718016)
(-0.00202356383268825 0.00134382748068383 771.333116898069)
(-0.0133976739660902 -0.0248148287840989 786.457572560427)
(-0.00777690525144934 -0.0148362868479903 786.458368892671)
(-0.00250430489336567 -0.00605036679181951 786.454962807536)
(-0.0104283775664799 -8.42091457759009e-05 786.458901696632)
(-0.00375834093825383 -8.27148673797901e-05 786.457044415808)
(-0.000797270797507615 -8.56184569784251e-05 786.45461904592)
(-0.0134137283672646 0.024640185459081 786.457548738468)
(-0.00778540367095795 0.0146654146769291 786.458353188256)
(-0.00251703825821555 0.00587013248308634 786.454956523808)
(0.00631522372811942 0.00968358093758745 786.459144029215)
(0.00298528984362042 0.0039281488186188 786.457155675195)
(0.001619357969234 0.00145628324023254 786.454569720266)
(0.0291242025283885 -0.000101769515612167 786.45775599082)
(0.0177098676724358 -9.43591020938032e-05 786.458492793905)
(0.00754667986180819 -9.93520788861883e-05 786.455029945609)
(0.00631609539017851 -0.00985462827605111 786.459184099362)
(0.00298981078307711 -0.00410232058343698 786.457174344869)
(0.00162879126995044 -0.0016403152094159 786.454565782426)
(0.0144228133864249 0.029194622292307 804.512524795356)
(0.00814361475958924 0.0181487727164076 804.51983465821)
(0.00188359005534789 0.00774664415538307 804.519174137224)
(0.00919477950577432 0.000153238015378977 804.510037780501)
(0.00232036113497574 0.000151873896280973 804.515803063739)
(-0.000527887401325929 0.000160044305949484 804.520100233783)
(0.0144430615814584 -0.0288987954911671 804.512502552622)
(0.00815330590404869 -0.0178425943962448 804.519814903788)
(0.0018980514009939 -0.00741126541712469 804.519168624309)
(-0.0080261109382289 -0.00998612071003639 804.510325912136)
(-0.00461597424014401 -0.00409676127346287 804.516020563772)
(-0.00332075883845813 -0.00167139573491949 804.520076803094)
(-0.0354882881204966 0.000163463701557845 804.512756201906)
(-0.0229122767456276 0.000161540696171963 804.5200520073)
(-0.0109840157081733 0.000178302911731677 804.519235476915)
(-0.00804005641151441 0.0103173626428862 804.510339107136)
(-0.00463450939659911 0.00443313745170181 804.516028124957)
(-0.00333952696945236 0.00202296610991608 804.520072762744)
(-0.00126266428974171 0.00323977806465935 824.307821063232)
(-0.00864944833695143 -0.00958528791110966 824.328492366991)
(-0.00682476355559011 -0.00641336653688217 824.346972360944)
(-0.00086154614354932 0.000197923158227354 824.322050036929)
(-0.0112600307443576 0.000203763987941505 824.336305030446)
(-0.0094840050926149 0.000210616913324594 824.348412686023)
(-0.00123786783976998 -0.00281785328170065 824.307805765)
(-0.00863054919638407 0.0100112890984838 824.328480069366)
(-0.00681404357377942 0.0068529335282933 824.346969931774)
(-0.00388843615445568 -0.00196763633852527 824.322081065737)
(0.00130886206288091 0.00714346446966202 824.336304765529)
(0.000389643322206975 0.00568676527724265 824.348394771603)
(-0.00600776785844846 0.000233032247690608 824.307911111727)
(0.00872752361802072 0.000229898800041673 824.32858398098)
(0.00489664063310605 0.000228745537002243 824.346988119993)
(-0.0039235825212617 0.00242421933827441 824.322081202803)
(0.00128261072356264 -0.00669039268384517 824.336303109642)
(0.000370920221364457 -0.00523382167694565 824.348393486774)
(0.00321026391118695 0.0112318632277848 850.232134165042)
(0.00484009452280621 0.0140076803056484 850.209521503536)
(0.000684836755236069 0.00682721401798153 850.17886502354)
(0.00392346966590432 0.000213545756069913 850.214341893771)
(0.00474723921147651 0.000218649898322053 850.197543183359)
(0.000955320316079635 0.000225086983161723 850.178505705832)
(0.00323204400597895 -0.0107818905507543 850.23212963087)
(0.0048559240196413 -0.0135540799222371 850.209519074565)
(0.000694212669924998 -0.00636322267353417 850.178871359563)
(-0.00647353916759738 -0.0061454625869604 850.214316145315)
(-0.00688414726750663 -0.00675726693884216 850.197536467917)
(-0.00501375098802237 -0.00338297558580193 850.178517545082)
(-0.0154058641498571 0.000244599569543968 850.232170108893)
(-0.0186836512460864 0.000241019317424636 850.209537629994)
(-0.0105236452914273 0.000239709891673361 850.178807122749)
(-0.00650401494901669 0.0066250507075946 850.21431267242)
(-0.00690561766341032 0.00723167917303037 850.197534550262)
(-0.00502736668363679 0.00385603958468545 850.178518302572)
(0.0343757835618323 0.0595024220728598 682.364696531919)
(0.0202274081885974 0.0349953608317673 682.408542028385)
(0.0161274254327201 0.0278843638806861 682.466817042084)
(0.0688214874272347 -1.72921652913661e-06 682.364846755418)
(0.0404286284424057 -1.84037974877485e-06 682.408655199512)
(0.0321988093665269 -2.06544053555648e-06 682.466841181118)
(0.034375767293951 -0.0595057528767134 682.364693845645)
(0.0202273816492348 -0.0349987701425344 682.408539609058)
(0.0161274354968694 -0.0278884622686258 682.466815501949)
(-0.0343791465599259 -0.0595847206511013 682.364877797926)
(-0.0201813249007151 -0.0349966765082055 682.408684090778)
(-0.0160596329923179 -0.0278651864548152 682.466861758221)
(-0.0686900476425427 -1.68149200249477e-06 682.364735945317)
(-0.0403912446704047 -1.72948725136279e-06 682.408577389114)
(-0.0321734754451267 -2.04158796661588e-06 682.466839490785)
(-0.0343792025154784 0.0595813551035504 682.364879881953)
(-0.0201814807836224 0.0349932616585271 682.408686045272)
(-0.0160597318897623 0.0278612262292597 682.466863160715)
(-14.8939800234977 -25.797504335071 5.05447704240908)
(-5.62924582459623 -9.75104945316085 -8.35270288365694)
(-7.50088564886016 -12.9932399859038 52.6469582301377)
(-18.7549620136423 -32.4861913461759 54.9005907556527)
(-12.4953530251054 -21.6435382142784 66.0678034350322)
(1.01472852493318 1.75692936494973 75.9681000440784)
(5.83770658760205 10.1108618400375 97.4219160439042)
(-3.22678379608943 -5.58885996460871 116.618147662781)
(-13.919196196616 -24.1085653161716 137.738931281226)
(-22.0701181443891 -38.2264557207601 146.45291469758)
(-23.0427177788103 -39.9112538550307 149.392563896537)
(-22.8883151385335 -39.6439241603127 152.859311623362)
(-25.9425285613153 -44.9343526756089 153.756848751841)
(-25.2831008430794 -43.7916244755979 173.273908310091)
(-9.90485519954202 -17.1559557673556 195.852379383228)
(-22.6530853776848 -39.2367288000482 45.1946010765786)
(-13.9805046336277 -24.2158758173829 304.89577127773)
(-38.5810506808914 -66.8255621211217 368.571616761959)
(-20.7732566426913 -35.9808913289638 282.218297116064)
(-5.88012522325759 -10.1859185982311 246.241787996259)
(-7.13871556444756 -12.3657404116995 236.428091750517)
(2.81740815911864 4.8792933997339 246.188555873454)
(7.63835426055327 13.2307163237411 317.700955767088)
(-1.04299974833939 -1.80603582599216 341.277876212862)
(-4.53181535210457 -7.84951673494158 347.014696107706)
(-0.158487563702168 -0.274940847393511 361.554138755164)
(5.42009933752746 9.38754377503797 380.197509517584)
(5.56335215322929 9.63545548441002 403.684454925567)
(-3.54300386764948 -6.13742826242573 445.229281945004)
(-13.0888346560548 -22.6711152250149 348.967147522582)
(69.9856080228014 121.218443379421 213.576486546007)
(188.255069502649 326.066216739519 1056.47671424872)
(2.81512996005752 4.87515239659871 1000.55657240801)
(-84.7901236428165 -146.860793105218 700.749016402014)
(-35.0193852142321 -60.6560375039878 585.817023146934)
(14.2050472610069 24.6042519277967 578.918942825593)
(9.13434367193473 15.8192464929771 598.10953578348)
(0.191822848136042 0.335278354296783 671.980749922582)
(-14.2859780683015 -24.7439312853484 676.86249860378)
(-18.713684716446 -32.4133730816316 664.395173847532)
(-12.150132310342 -21.0456028623892 672.317881674152)
(-6.87724351385072 -11.9110899651634 691.140490580159)
(-8.40663907294781 -14.5597834103014 719.395047367164)
(-6.28108214730756 -10.8794647934333 789.959168705283)
(-29.5194748767824 -51.1298471418622 697.485104258707)
(357.980400809154 620.040724019849 950.257810459551)
(521.31160939303 902.938839302605 1603.65716709279)
(142.978009317008 247.645188726666 1570.41975196882)
(-103.728127534108 -179.660091381284 1253.08811930286)
(-60.0558614038347 -104.021240250722 935.948249014135)
(-6.50009654564305 -11.2590229725372 932.331539173196)
(44.0240653668943 76.2519882190195 996.613155420463)
(25.8861233734191 44.836227201342 1058.30670319753)
(-8.09147384943875 -14.0142451288614 1052.0771382484)
(-6.48810432672313 -11.2384751442682 1033.71571961865)
(-0.811093162224066 -1.40569414998987 1033.00068597724)
(1.40258883215951 2.43016357185307 1042.37104838233)
(2.69428980013794 4.66876519074967 1063.45044292168)
(14.6001080831431 25.288639900921 1135.04974827439)
(-10.1153073070742 -17.5203962621945 1128.58767533893)
(-18.7441694824076 -3.85424799690222e-06 1.76880860402077)
(20.1513157643964 2.6029004576193e-06 111.887400831154)
(-7.86825643360312 -4.00308678853659e-06 150.703740452906)
(-44.7516380636534 -6.64658818870184e-06 126.804345402956)
(-30.7341907657727 -8.21681510420532e-06 88.7000178129349)
(-5.06091416856489 -5.38246896301618e-06 90.9895241623683)
(13.5240487761984 -1.11829122347912e-05 119.39640857305)
(-0.589198502749332 -1.95869488985154e-06 134.599192527511)
(-13.5721136766254 -1.0393218194962e-06 153.068387424452)
(-33.213595262041 5.54571360598096e-06 149.41804678356)
(-44.2173412326415 1.09236929600133e-05 140.247567870023)
(-52.0268131753578 -1.03669261822675e-05 133.406142584757)
(-56.613043081751 2.24210982010988e-07 138.91663749576)
(-41.1439533720688 -2.47158218736812e-05 178.093906949013)
(24.0610500799828 -1.34896105532629e-05 227.787034384585)
(43.0236239285324 -3.10408256037746e-06 67.8114638590412)
(94.7003585134554 1.64881127234756e-05 395.272573425283)
(-5.72417398852963 2.81465207367667e-06 489.34299197984)
(-68.6125905930811 -3.10740860394185e-05 394.645968897452)
(-33.0803757839825 -2.96825881048927e-06 302.530334144146)
(-1.7590569605303 9.7343718484615e-06 287.856863288706)
(13.0993340595021 -1.67879341659978e-05 282.245175494291)
(8.01444011599095 -3.87403436454465e-05 341.049661884515)
(3.66554147615294 -3.13618981677484e-08 348.236213194472)
(1.8833173019731 4.90816054145396e-06 337.555063049768)
(-2.87316188218796 2.30442481738971e-06 338.040761191309)
(3.24935658484989 -4.58337005019144e-05 351.637408951245)
(0.726697752916526 -7.07001752612132e-05 391.045860398497)
(-2.8835809318858 -4.9744734519096e-05 442.541339265275)
(-10.5363717181693 -3.52383911807862e-05 359.471546456462)
(245.42679975989 5.99716871592991e-06 286.135771955481)
(278.095203633372 0.000120172727673574 984.298589868207)
(-9.26522024390571 0.000141248484235761 948.444746679042)
(-118.38229310533 -0.000101566147958426 772.390317434931)
(-42.273632605259 -0.000133555714865825 642.636861917738)
(21.6773417783748 -0.000130713102709247 630.257321833453)
(-4.14086193215196 -0.000149461667770462 630.807837321979)
(-23.3684129275404 -0.000109418770128699 675.68054618985)
(-33.0692317178273 0.000115104872365879 651.379323376578)
(-34.9987017178572 0.00011650905790638 631.094145635712)
(-31.2962994862235 0.000229078587193032 641.770764744187)
(-19.8455090375556 9.4545300439767e-05 678.320234102684)
(-6.51273378880651 -6.8976039071471e-05 727.119366072795)
(14.1410615419058 -6.56400563390486e-05 802.602698822753)
(-29.0298833977667 -4.73681950469909e-05 706.281871027385)
(557.679650244736 0.000143096927917132 897.629515356268)
(832.903713725458 0.000162536403894664 1560.52480751093)
(166.90521148556 0.000256462754441351 1420.32561833652)
(-199.954467534199 -6.08422471940532e-05 1213.14528185769)
(-106.995715349424 -9.84111195458826e-05 954.599262689053)
(-1.70457643915845 5.06319604306752e-05 951.638169670393)
(85.3953826027146 -0.000125671219563931 996.642908684938)
(44.8782014339991 -0.000122511881613838 1040.34170618321)
(-29.7950367565434 -5.41468565589493e-05 1003.03209890803)
(-33.2533081366858 8.83328765201191e-05 995.213612598109)
(-3.78145872240634 3.22843578522356e-05 1009.47763276766)
(22.2301535145836 5.62605726623695e-05 1047.37683213417)
(19.388056231739 4.30312810835463e-05 1080.0537058614)
(37.2555640263005 5.45187172364672e-05 1148.07569018583)
(-25.7862204763369 2.17260999111295e-06 1093.66688573362)
(-14.8940011201274 25.7974854783401 5.05448540605057)
(-5.6293320388494 9.7510930560177 -8.3528008604213)
(-7.50096973744088 12.9932285483739 52.6467477651779)
(-18.7550467962343 32.4861206292557 54.9004421978967)
(-12.4954190560912 21.6435182185468 66.0676842353059)
(1.01467573351893 -1.75693219923969 75.9680187120118)
(5.83765311810948 -10.1108282329457 97.4218489485934)
(-3.22677686804073 5.58885142457384 116.618131881042)
(-13.9191746076391 24.1085414228447 137.738918330998)
(-22.0701044011459 38.2264375495391 146.452909684093)
(-23.0426971283511 39.9112046774126 149.392603461327)
(-22.8883202543419 39.6439162905758 152.859319544732)
(-25.9425564259903 44.9343524597242 153.756820730597)
(-25.2831135037737 43.7916468510267 173.273836270797)
(-9.90487340865745 17.155967111356 195.852302003042)
(-22.653138474612 39.2367733724168 45.1945821181092)
(-13.9806437842333 24.2160194704671 304.895445683312)
(-38.5811205435132 66.8255248566822 368.571327704324)
(-20.7732479745099 35.9807995602285 282.217970445865)
(-5.88017084465595 10.1858269470982 246.241540771736)
(-7.13874821703093 12.3656241150682 236.427959044294)
(2.81741362849099 -4.87941603319126 246.18844699425)
(7.63837615135257 -13.2307098093038 317.700823048731)
(-1.0429769791456 1.80603346399016 341.277747229369)
(-4.53181310734691 7.84949517601432 347.014564327065)
(-0.158424505607147 0.274791786749918 361.553989751605)
(5.42008935353794 -9.38755876239212 380.197370891324)
(5.56333563324468 -9.63547581550146 403.684291377293)
(-3.54303370909585 6.13741426198172 445.229127913468)
(-13.0888676904775 22.6711218020822 348.96699338192)
(69.9854699004192 -121.218218222334 213.576358429275)
(188.254857187927 -326.065962418439 1056.4763221738)
(2.81499830667204 -4.87502082251549 1000.55634615947)
(-84.7900848205959 146.860704813521 700.748717436497)
(-35.0193934159853 60.6559461941863 585.816741368665)
(14.2050809328743 -24.6042585645923 578.918813691722)
(9.13413593638557 -15.8191680954319 598.109371691988)
(0.191888480671317 -0.335015463324306 671.980397596715)
(-14.2859920053791 24.7439306454182 676.86218144192)
(-18.7137104126668 32.4133664336775 664.394863328151)
(-12.150198972944 21.0456108994481 672.31733540896)
(-6.87730163515332 11.9112446468307 691.14004292282)
(-8.40669373808248 14.5599603948575 719.394608737933)
(-6.28116177003287 10.8795721838245 789.958829204107)
(-29.5195473905258 51.1299168017135 697.484824835925)
(357.980356212566 -620.040603009563 950.257761503557)
(521.31134049198 -902.938317398015 1603.65679539069)
(142.977755282884 -247.64478102856 1570.41943123842)
(-103.728031355568 179.660183415772 1253.08788130191)
(-60.0558777430539 104.021081200591 935.948077153401)
(-6.50000017096231 11.2587815662215 932.331468091027)
(44.0240669853767 -76.2519929911797 996.61298899904)
(25.886029891518 -44.8360755552071 1058.30633495456)
(-8.09159666171981 14.014485368142 1052.07687717026)
(-6.48802743279174 11.2382217828465 1033.71518437923)
(-0.811262806815178 1.4058403248797 1033.00001201097)
(1.40251402429048 -2.42999780730867 1042.37043608956)
(2.69427567889832 -4.66855850939341 1063.44992030319)
(14.6000699073779 -25.2885318114847 1135.04935280209)
(-10.1153819265379 17.5205062729031 1128.58738265518)
(9.37192788084464 16.2326093531486 1.76882420583003)
(-10.0766589194341 -17.4531712821203 111.889151226005)
(3.93354893436148 6.81309211556058 150.70492487704)
(22.375837896325 38.7560202375174 126.805936126998)
(15.3670778120697 26.6164512179721 88.7009561732297)
(2.53027974473215 4.38249177815742 90.9902407015612)
(-6.76218585635403 -11.7126605151514 119.397057518682)
(0.294794862676504 0.510570671815263 134.599448939599)
(6.78619237211519 11.7540057390919 153.068571252297)
(16.6068280379459 28.7639630895935 149.418208036954)
(22.1086501395283 38.2934743885102 140.247685438663)
(26.0134964727896 45.0564686319797 133.406242649893)
(28.3064595249434 49.0282265606312 138.917204321903)
(20.5720561106467 35.6313118189534 178.094858957589)
(-12.0306107333913 -20.8379061278623 227.788039958184)
(-21.5121403611922 -37.2601089275628 67.8120595254956)
(-47.3510738138946 -82.0140161659901 395.275829282708)
(2.86179258627876 4.95689308057294 489.347094871981)
(34.3069374343535 59.4207912531614 394.648961549493)
(16.5402157910925 28.6484705654689 302.532320855743)
(0.879776357321131 1.52399929692657 287.858286796151)
(-6.54914483093427 -11.3437296569745 282.24577163488)
(-4.00696546693452 -6.94095010518559 341.050567503823)
(-1.83276451117727 -3.17437544404288 348.237128090274)
(-0.941708094463445 -1.63098437333379 337.556074709149)
(1.43661719303863 2.48831960391002 338.041552213206)
(-1.62432094585771 -2.81436816483817 351.638133714354)
(-0.362921249735384 -0.630076525118204 391.047115951178)
(1.44208167151467 2.49671542751339 442.542591066953)
(5.26839965298972 9.12440948352346 359.473080537172)
(-122.714358935879 -212.5473212432 286.135857028028)
(-139.050830244904 -240.84026963685 984.303946250021)
(4.6297686229863 8.02196357166099 948.451639223348)
(59.1930453979904 102.523652575972 772.394306228647)
(21.1379148202134 36.6097165830847 642.638957733308)
(-10.8373528192322 -18.7727057207427 630.259473663907)
(2.07134209539588 3.58549352651089 630.80862330406)
(11.6846894454546 20.2369508634303 675.682212291541)
(16.5334824091443 28.6387625492446 651.381861793592)
(17.498338238443 30.3101005987206 631.096693945649)
(15.64656952918 27.1049138403527 641.772722409666)
(9.92159718424256 17.1865408684284 678.322216517607)
(3.2563949863128 5.63883222428483 727.121633265494)
(-7.07039293806586 -12.2475925195318 802.604846490392)
(14.5150381153468 25.1398204377276 706.284669121015)
(-278.841556731157 -482.964451990072 897.628134773446)
(-416.456917506511 -721.320649589405 1560.52936084271)
(-83.4579906670509 -144.548233127172 1420.33095952491)
(99.9761660813335 173.163450737155 1213.15377102166)
(53.4995971958622 92.6626679345802 954.601340025212)
(0.854261149673998 1.4805167562727 951.640155144837)
(-42.6962524853735 -73.9541034155563 996.644005364599)
(-22.4383839618518 -38.8663080133917 1040.34427585515)
(14.8970772248301 25.8018793096672 1003.0354035006)
(16.6259354442038 28.798674871403 995.217606404221)
(1.89066870464499 3.27549832533252 1009.48057710728)
(-11.1154998338126 -19.251516917146 1047.37958808396)
(-9.69461405471753 -16.7908300984381 1080.0564406589)
(-18.6286433204638 -32.2646987841049 1148.07839058751)
(12.8926978707009 22.330801681909 1093.66994813459)
(29.7882641077433 -2.7707510366562e-05 5.0543844958084)