/*--------------------------------*- C++ -*----------------------------------*\
  =========                 |
  \\      /  F ield         | OpenFOAM: The Open Source CFD Toolbox
   \\    /   O peration     | Website:  https://openfoam.org
    \\  /    A nd           | Version:  11
     \\/     M anipulation  |
\*---------------------------------------------------------------------------*/
FoamFile
{
    format      ascii;
    class       volScalarField;
    location    "0.0000200221";
    object      Ma;
}
// * * * * * * * * * * * * * * * * * * * * * * * * * * * * * * * * * * * * * //

dimensions      [0 0 0 0 0 0 0];

internalField   nonuniform List<scalar> 
900
(
0.529905942740395
0.55659704477558
0.614094907004522
0.524635389488985
0.553455378194683
0.613889748103945
0.505329770669445
0.546256994175266
0.613725596145961
0.529905950081756
0.556597046561306
0.614094905984312
0.524635399486508
0.553455380049349
0.613889747509228
0.505329773351882
0.546256994081549
0.613725596834288
0.529905942742597
0.556597044778205
0.614094907009666
0.524635389488853
0.553455378192201
0.613889748104429
0.505329770664475
0.546256994175552
0.613725596147125
0.529905942743252
0.556597044777329
0.614094907006429
0.524635389490974
0.553455378193252
0.61388974810336
0.505329770665857
0.546256994172459
0.613725596144939
0.529905950088214
0.556597046567189
0.614094905986892
0.524635399495168
0.553455380052865
0.613889747505025
0.505329773354798
0.546256994067629
0.613725596817942
0.529905942748276
0.556597044780222
0.614094907012677
0.524635389491071
0.553455378190025
0.613889748103359
0.505329770666436
0.546256994160745
0.613725596134315
0.664495077303167
0.646569889600936
0.60219780835619
0.664277142938857
0.647786511352947
0.603686976863146
0.664413520580654
0.649771785858543
0.605967023016637
0.664495080188202
0.646569892826237
0.602197810563356
0.66427714647394
0.647786514094575
0.603686972230973
0.66441352337453
0.64977178655889
0.605967013296128
0.6644950773062
0.646569889603437
0.602197808371155
0.664277142936349
0.647786511388847
0.603686977037934
0.664413520579323
0.649771785903802
0.605967023304427
0.664495077306094
0.646569889603276
0.602197808379167
0.664277142940149
0.64778651136725
0.603686976907092
0.664413520582821
0.649771785853994
0.605967022855199
0.664495080196961
0.646569892831032
0.602197810573936
0.664277146476572
0.647786514084238
0.603686972216047
0.664413523369687
0.649771786567513
0.605967013391653
0.664495077324347
0.646569889627963
0.602197808432063
0.664277142950449
0.647786511423833
0.603686977115318
0.664413520584596
0.649771785911178
0.605967023027446
0.525976615759117
0.526510458842982
0.527245037541
0.525976616779737
0.526510457219793
0.527245038594943
0.525976615732903
0.526510458901757
0.527245037511224
0.525976615747884
0.526510458922228
0.527245037613877
0.525976616809894
0.526510457152482
0.527245038519442
0.525976615727105
0.526510458983343
0.527245037583022
0.396559395526557
0.396585417190528
0.396617291032988
0.396559394442511
0.396585418237555
0.396617292373841
0.39655939555213
0.396585417148615
0.396617290976223
0.39655939554468
0.396585417170256
0.396617291012712
0.396559394450837
0.396585418279664
0.396617292415477
0.396559395577046
0.396585417132737
0.396617290971366
0.175533856297969
0.175386655588306
0.175210846612743
0.175533855101184
0.175386654511581
0.175210846234335
0.175533856315004
0.175386655609717
0.17521084661631
0.175533856312857
0.175386655601352
0.175210846609278
0.175533855105795
0.175386654521561
0.17521084626674
0.175533856332545
0.175386655631844
0.175210846623472
0.0214479028637285
0.021413527570005
0.0213713942698731
0.0214479027641417
0.0214135274125143
0.0213713941496919
0.0214479028656721
0.021413527574751
0.021371394273758
0.0214479028667337
0.0214135275740844
0.0213713942715002
0.0214479027661618
0.0214135274143287
0.0213713941556915
0.021447902867775
0.02141352758028
0.0213713942820526
0.000431025964364956
0.000430529945056261
0.000429800025804663
0.000431025970729783
0.000430529948823782
0.000429800029281522
0.000431025964401875
0.000430529945115893
0.000429800025857665
0.000431025964448144
0.000430529945157611
0.00042980002588099
0.000431025970824217
0.000430529948924849
0.000429800029456345
0.00043102596444187
0.000430529945229763
0.000429800026113173
4.2652702741198e-06
4.26684623289762e-06
4.26705354793233e-06
4.26527040157158e-06
4.26684635343545e-06
4.26705364354428e-06
4.26527027714538e-06
4.26684623778836e-06
4.26705354923039e-06
4.26527027340534e-06
4.26684623105204e-06
4.2670535468718e-06
4.26527040182873e-06
4.26684635346908e-06
4.26705364542179e-06
4.26527027946566e-06
4.26684624082398e-06
4.26705355250965e-06
7.64185922740283e-08
7.65353675124058e-08
7.66855174957904e-08
7.64185906281272e-08
7.65353662215064e-08
7.66855176674705e-08
7.64185901296076e-08
7.65353654988096e-08
7.66855177256606e-08
7.64185935908346e-08
7.65353712283774e-08
7.66855199279307e-08
7.64185922281223e-08
7.65353675096492e-08
7.66855193565099e-08
7.64185905862911e-08
7.65353668906522e-08
7.66855180552768e-08
1.06459040596777e-09
1.06817037623218e-09
1.07018239800527e-09
1.06459151636532e-09
1.06817224262187e-09
1.0701864000994e-09
1.06459072828078e-09
1.0681707755916e-09
1.07018336564132e-09
1.06458964439498e-09
1.06817005525589e-09
1.07018221732314e-09
1.06459073635191e-09
1.06817175159186e-09
1.07018643946603e-09
1.0645911208442e-09
1.06817111994483e-09
1.07018246247717e-09
0.468720439509984
0.438242442771382
0.40803013749461
0.468720450512913
0.438242448817052
0.408030139174813
0.468720439511619
0.438242442770657
0.408030137490208
0.468720439513489
0.438242442771001
0.408030137491398
0.468720450520562
0.438242448824466
0.408030139180495
0.468720439518446
0.43824244277813
0.408030137498161
3.2268035470385e-15
3.19540099035583e-15
1.39671099023981e-15
2.7006092690497e-15
1.75085256375129e-15
1.72706686497905e-15
3.00518541730299e-15
3.55925473825055e-15
4.23876619469636e-15
4.19914743337674e-15
1.06451214248786e-15
2.838180710981e-15
2.76156020746523e-15
1.53868135243875e-15
1.74549658056165e-16
1.36819607163063e-13
7.96594672370953e-14
8.34723193197736e-15
4.24554803378593e-15
3.99742035330226e-15
3.49096320071799e-15
3.32446940584544e-15
4.41189826273781e-15
3.58342298054077e-15
3.41581509426683e-15
2.91474180460377e-15
3.24210196108099e-15
3.01331318329738e-15
3.24809037404456e-15
1.02489264168243e-15
2.81115478610304e-12
9.51464642097606e-13
4.12764571825959e-14
3.13166373411031e-15
3.76265103552584e-15
3.74740666243995e-15
2.8558618204029e-15
2.59633943135362e-15
2.12866605490945e-15
2.12272839318809e-15
3.34550455562098e-15
2.85078119067839e-15
2.6089386495528e-15
3.74679514029912e-15
1.79074191970893e-15
2.58086125633884e-11
3.7334834818359e-12
6.72943525260378e-14
2.33785262805063e-15
4.07994949741288e-15
3.71269772526574e-15
2.98981139010922e-15
1.99868493809218e-15
2.21276550321291e-15
1.92698565562066e-15
3.10756562974076e-15
1.87076765791876e-15
2.54563946906937e-15
3.60103048789931e-15
3.5436399179456e-15
5.25788449236874e-15
2.50948992519291e-15
4.89259297781017e-16
3.24070471650545e-16
1.14594130997336e-15
3.25022161489531e-16
9.59279466977581e-16
1.16317293964953e-15
9.43591410200686e-16
1.33642838597528e-15
2.96784638169847e-16
2.05040253847959e-15
1.74627409155511e-15
1.75494687267883e-15
3.4103185652435e-16
1.38508210142557e-13
7.73887408271453e-14
6.3935171860219e-15
4.54728664460727e-15
3.76305474416238e-15
3.80752850785611e-15
3.93767810957756e-15
5.16147295256565e-15
5.69494903813442e-15
4.13928410422889e-15
3.93877830516011e-15
4.15290818036809e-15
2.80573759893191e-15
3.48850299561764e-15
2.08678439950027e-15
2.80356893866668e-12
9.4889867734677e-13
3.92758840546536e-14
5.12424370898953e-15
4.63079463134402e-15
4.35171707272961e-15
4.28590233450731e-15
4.88483187740326e-15
4.62333145164521e-15
4.08261222920903e-15
3.85948588827931e-15
3.69844535943551e-15
3.29163369026407e-15
4.26532889670485e-15
3.18870765682524e-15
2.58123089378597e-11
3.73223912590708e-12
6.6070523421388e-14
5.51379226062903e-15
5.51891851123397e-15
5.05545118324307e-15
4.55033365228476e-15
5.03041514167543e-15
5.11886010338155e-15
4.87198865599352e-15
4.65609803169302e-15
3.68173159160187e-15
3.94271739743081e-15
5.52214796460459e-15
4.87061426211824e-15
2.78690065968365e-15
3.76413446153923e-15
2.36434567294688e-15
3.12471890523437e-15
2.53835658694375e-15
2.04672101057226e-15
3.86622992470882e-15
3.69066174831063e-15
3.37350578116834e-15
2.98542356726801e-15
1.10811802981779e-15
3.45368167925347e-15
2.8962523079809e-15
2.14531463762017e-15
2.14240010646129e-17
1.34672660337195e-13
7.66703755600255e-14
9.05752279123807e-15
3.87565189640175e-15
3.47650992472938e-15
3.59039564355217e-15
3.19410675809419e-15
3.85247810323677e-15
3.9720978829944e-15
3.59190000374569e-15
2.67066482990203e-15
3.22310869907621e-15
2.79469212453042e-15
3.49270902516112e-15
1.6215036761364e-15
2.8109128044812e-12
9.51668666653215e-13
4.14998157671468e-14
2.87743050942792e-15
3.45342190071995e-15
2.72804163744169e-15
1.6256706688059e-15
2.26095473691313e-15
2.51248997101967e-15
2.77074022534543e-15
3.07262694141083e-15
2.03797403085409e-15
2.47610565878583e-15
3.39632809809427e-15
3.17250712013633e-15
2.58076925632692e-11
3.73385652356107e-12
6.80023395181485e-14
2.31361290211637e-15
3.79852104009249e-15
2.88148971477105e-15
1.98211270591572e-15
1.97881956022181e-15
2.84020231251845e-15
2.80314782548095e-15
3.33547345913854e-15
2.14373854483753e-15
3.29058282781354e-15
3.90462176119968e-15
4.30217177063374e-15
3.05947298736115e-15
3.42314520879157e-15
2.08742728613326e-15
3.16354947353572e-15
2.55462554660145e-15
2.74824522475869e-15
3.15652026000905e-15
3.48519474853215e-15
4.10806922412843e-15
3.93603671287647e-15
1.09032570218301e-15
2.50934511247793e-15
2.8058294021915e-15
2.01831165791228e-15
1.34351690167705e-16
1.36635864471569e-13
7.97217518406143e-14
8.92710927091477e-15
3.77194304688105e-15
3.82857429209897e-15
3.00445000026658e-15
2.8515914845894e-15
4.17333411897535e-15
3.49322977593187e-15
3.46992026223137e-15
2.87763706718022e-15
3.43720328692036e-15
3.10376115183942e-15
3.92318644072093e-15
2.26400129087e-15
2.81122619313505e-12
9.51248247789589e-13
4.18949075029836e-14
2.44421738247968e-15
2.75546611021259e-15
1.78297934234875e-15
1.68475921760301e-15
2.33240635514651e-15
2.05193170545828e-15
2.16832983402514e-15
3.29613689681212e-15
2.89431594967358e-15
2.68480721689795e-15
3.95637963821688e-15
3.30679997266783e-15
2.58080613703648e-11
3.73326469656288e-12
6.75609553670584e-14
1.87135897274762e-15
3.04988500416284e-15
2.2661106057406e-15
1.87488015922301e-15
2.26636190122683e-15
2.07180585126626e-15
1.95413640703535e-15
3.2664564279308e-15
1.95986603149071e-15
2.59011362008244e-15
3.58490260017399e-15
3.47407841711633e-15
5.231426024626e-15
2.67715953697422e-15
5.38579285996694e-16
3.72046780737416e-16
1.46034723459463e-15
8.31694517573142e-16
1.33948489736034e-15
1.22889703955734e-15
9.64321199265848e-16
1.27041401413771e-15
2.94032489142948e-16
1.91073089210644e-15
1.6760704830767e-15
1.77024664149414e-15
4.59863777420685e-16
1.3747478503454e-13
7.7274539588236e-14
7.02283002719208e-15
4.69369431917091e-15
3.92853981926411e-15
3.96463380594449e-15
3.82106487580797e-15
5.09970758688865e-15
5.58637833659668e-15
4.10639303219622e-15
4.24425045714253e-15
4.20747961289449e-15
2.99629676364428e-15
3.26516951959767e-15
8.99417037520885e-16
2.8035222274567e-12
9.48522424724504e-13
3.98106198818393e-14
5.05916154605095e-15
4.55381313931144e-15
4.00216025237405e-15
3.96951137287141e-15
4.5598678170726e-15
4.5221726304369e-15
4.21050966972293e-15
4.93073586736302e-15
3.88053842931283e-15
3.6154524938548e-15
4.02118853897776e-15
3.00876161181759e-15
2.58121107157964e-11
3.73171857891078e-12
6.63046992622345e-14
5.2431410241619e-15
5.31518380754752e-15
4.71680053904382e-15
4.18866165129559e-15
4.63518131445175e-15
4.56767134316163e-15
4.74465880865698e-15
4.19097481622182e-15
3.77669284089116e-15
4.28657693188136e-15
5.86179454945705e-15
6.47368318692665e-15
2.52807186700112e-15
4.29057735454908e-15
2.82313553610016e-15
3.21778115602056e-15
3.0160208161898e-15
1.86770746568772e-15
3.81896914595671e-15
3.7330130573994e-15
3.40630299950525e-15
3.08977333835851e-15
1.26620737974525e-15
3.73481454234674e-15
3.83365185393096e-15
2.37622898739495e-15
3.06509330841494e-16
1.34875576619392e-13
7.73585244188363e-14
9.54241764958788e-15
3.8243513180926e-15
3.16692965602943e-15
3.37107010195346e-15
3.05503713160158e-15
3.94894362891191e-15
3.98956011964432e-15
3.63963694107714e-15
3.17658905591572e-15
3.3283708475545e-15
2.76370690110579e-15
3.63404232383604e-15
1.66353695204221e-15
2.80946321481183e-12
9.51397503826989e-13
4.20450239723111e-14
2.74197619728987e-15
3.39662232130479e-15
2.60909051156027e-15
1.4289750322588e-15
2.17590656852985e-15
2.47836840053328e-15
2.89207949870893e-15
3.63139469521864e-15
1.95421354021748e-15
2.03073465675315e-15
3.49767494183436e-15
2.99057967755299e-15
2.58080626480514e-11
3.73383363456707e-12
6.80550774330064e-14
2.15453951348028e-15
3.8082056112965e-15
3.00030149424542e-15
2.05546460477677e-15
1.60978999241978e-15
2.72317032289878e-15
2.89556846659849e-15
3.39229081326265e-15
2.14314101662389e-15
2.89122872848433e-15
4.06540563606112e-15
4.57269848240787e-15
1.2055976354287e-10
4.03517008628278e-12
3.44454836957992e-14
1.57003969444375e-15
1.40897934464777e-15
9.19351613237582e-16
9.85502095263674e-16
1.19346022577523e-15
1.5442244323551e-15
1.15073421890079e-15
1.01599413265549e-15
6.57740828134099e-16
9.60550036485137e-16
1.63940783766949e-15
2.11034666342646e-15
1.44090498446722e-10
5.47539626254695e-12
3.80514562718555e-14
1.19494676546939e-15
1.08351559815644e-15
1.46942980137094e-15
1.57193143562857e-15
2.00368774511226e-15
2.02837965937539e-15
8.14383484157414e-16
1.46638839081391e-15
1.0131907667937e-15
1.05911168681265e-15
2.01238573932396e-15
2.37318312849814e-15
1.472582100291e-10
6.2257642358902e-12
4.47630106269824e-14
1.05550860197548e-15
1.01858184697971e-15
1.01892183439755e-15
1.61294071797036e-15
1.27679776370661e-15
4.80326025581467e-16
6.76511980155734e-16
9.66076113676954e-16
1.23389595488528e-15
1.0528337515287e-15
1.68353114134332e-15
2.13624796050519e-15
1.2055950237645e-10
4.03356563350691e-12
3.44242211178713e-14
2.69493362455361e-15
2.37592857655285e-15
1.41556516869737e-15
1.00171937274609e-15
1.9480707941269e-15
2.72129171408674e-15
1.8350976526251e-15
2.42882374703252e-15
8.68649446202045e-16
1.10113113800521e-15
2.79685248057551e-15
3.65355700372666e-15
1.44091594849217e-10
5.47429196102599e-12
3.80061493709986e-14
1.64704852427068e-15
1.94933448745055e-15
1.19178163440068e-15
5.19592862214076e-16
8.573887914898e-16
9.79804870710147e-16
9.16530215630207e-16
1.43280859443905e-15
6.77727534856823e-16
8.14966960143462e-16
2.1417021331634e-15
3.29830652879842e-15
1.47257039084229e-10
6.22439333103954e-12
4.49910558920385e-14
1.02696489532137e-15
1.16092858752313e-15
1.26491950568298e-15
1.33595362504177e-15
4.77612534682802e-16
5.97952138322418e-16
6.04743347089971e-16
1.33562269011307e-15
1.30559876304976e-15
1.75515609471022e-15
2.63969386691951e-15
2.6258388840748e-15
1.20558884888983e-10
4.03552588643e-12
3.52590806397466e-14
1.05292995294195e-15
1.45799396440333e-15
7.97739967832439e-16
3.99593878334055e-16
1.32627906983354e-15
1.36991004867265e-15
7.8832827268278e-16
9.3040709136818e-16
3.99413886801239e-16
1.03237834026982e-15
1.85744090959857e-15
2.21710944998081e-15
1.44089425037831e-10
5.47556235727004e-12
3.8222563013457e-14
1.6466142405344e-15
1.28255616258255e-15
1.18059817695242e-15
8.74669308775668e-16
2.18286598732674e-15
1.70419877307626e-15
6.73698607025361e-16
1.36093040771884e-15
1.05506867298044e-15
1.28407464092157e-15
2.14355654331255e-15
2.15466370693014e-15
1.4726071934172e-10
6.22581046018692e-12
4.45927113574141e-14
1.41909956814884e-15
6.24091283503015e-16
8.61960389567948e-16
5.31256257813857e-16
1.00133662608541e-15
4.1582321741368e-16
3.58201926896859e-16
3.53347226768641e-16
8.40351527630648e-16
1.44265330760668e-15
1.9486271028477e-15
1.97073847719943e-15
1.20559712434536e-10
4.03511309714378e-12
3.45158806897815e-14
1.90822619353371e-15
8.88208443491468e-16
1.62056486497156e-15
1.30009290408903e-15
1.62841424944754e-15
1.84916201470586e-15
1.13949613449864e-15
7.8246907190685e-16
5.48861548879193e-16
9.7719212482286e-16
2.16965212281185e-15
2.12721643635975e-15
1.44090559999777e-10
5.47518049432386e-12
3.7838051235057e-14
1.87210951774519e-15
9.17531406046283e-16
1.50576028398748e-15
1.25945616210075e-15
1.88124278225229e-15
2.19565697094135e-15
6.57406191654176e-16
1.1709792240104e-15
9.09596733483595e-16
1.19509933689106e-15
2.18717676561363e-15
2.47179678414319e-15
1.47256429998127e-10
6.22639878391567e-12
4.43361322604391e-14
1.35601558958284e-15
6.74746574082971e-16
1.34710607050793e-15
1.34902729298133e-15
1.09655552228196e-15
4.28587920535005e-16
9.68614166661097e-16
8.19373197491153e-16
1.27841183300259e-15
1.47352351172808e-15
1.92468446002012e-15
2.12196575990149e-15
1.20558805907026e-10
4.03331679352871e-12
3.44537346124896e-14
2.31709210492816e-15
2.0560962127185e-15
1.14821774393009e-15
1.50063837062758e-15
1.7258328169744e-15
2.43358605216734e-15
1.50195449463598e-15
1.01052537053512e-15
8.11368513878383e-16
1.38735026183696e-15
3.25851383172417e-15
4.21114259908792e-15
1.44091758173311e-10
5.47418561176321e-12
3.7678395832296e-14
1.96120163189802e-15
1.27259645813304e-15
1.10650010945908e-15
1.30979044962944e-15
1.64375263929614e-15
1.57915173399878e-15
8.32424996649895e-16
8.79935091644417e-16
6.79800549450285e-16
8.96628971683032e-16
2.19532934237879e-15
3.48242437017498e-15
1.47259905529068e-10
6.2242620429358e-12
4.44964837927283e-14
1.42251519591268e-15
1.30609903950034e-15
1.62907641020844e-15
1.48902701247614e-15
7.49362848711444e-16
9.34496963968742e-16
7.60088642832612e-16
1.22499857541805e-15
1.27341475773702e-15
1.8590457413834e-15
2.56314470065203e-15
2.37379005793942e-15
1.20558892289592e-10
4.03585317666148e-12
3.52024573173699e-14
1.13598885187107e-15
1.02430181269059e-15
8.32460964468469e-16
6.89423391345144e-16
1.92023259793322e-15
1.68888167107796e-15
6.38942927048712e-16
4.61828739437354e-16
5.08973569301041e-16
1.02404595935953e-15
2.04087923752633e-15
2.67301744198419e-15
1.44090216281455e-10
5.47578434848557e-12
3.82712464267359e-14
2.05209635195582e-15
9.46016079141007e-16
1.50712089915111e-15
1.2886746302634e-15
1.47256367158126e-15
2.19416161279806e-15
8.30958337002401e-16
1.69794414720088e-15
1.11293011750183e-15
1.35105404720879e-15
2.22982820557765e-15
2.24766734574558e-15
1.47257441822154e-10
6.22620665299852e-12
4.46250693566463e-14
1.25572741165601e-15
5.53512893931289e-16
1.16768329529121e-15
7.64241154289286e-16
6.69510098096122e-16
6.42173218403153e-16
1.79505357431152e-16
4.46967523804471e-16
8.99784192204152e-16
1.34357624940685e-15
2.02587296157925e-15
1.95994549818382e-15
)
;

boundaryField
{
    inlet
    {
        type            calculated;
        value           nonuniform List<scalar> 
24
(
0.460568464952935
0.46056847598917
0.460568464955189
0.460568464956718
0.460568475996309
0.460568464962415
0.460568464952935
0.427104525280637
0.396354988134929
0.46056847598917
0.427104531668384
0.396354989669784
0.460568464955189
0.427104525280616
0.396354988130162
0.460568464956718
0.427104525281233
0.39635498813189
0.460568475996309
0.427104531677105
0.396354989677898
0.460568464962415
0.427104525289722
0.396354988140409
)
;
    }
    outlet
    {
        type            calculated;
        value           nonuniform List<scalar> 
156
(
3.74226317013203e-17
5.20619409555002e-16
1.38886923871798e-15
2.53868120678745e-15
1.72226798486802e-15
1.53558219161981e-15
2.98251404671035e-15
3.54593682095411e-15
4.22997388346498e-15
4.14373779851679e-15
1.05050324890539e-15
2.80267783018451e-15
2.58732769513346e-15
9.42438474767095e-16
8.76956657108868e-17
1.54894171434667e-16
1.3365204485855e-16
1.79426614527938e-16
2.91288925186361e-16
1.11989946633114e-15
3.12337166909773e-16
9.25445452078962e-16
9.52511684143817e-16
8.01330081107381e-16
1.32776224965147e-15
2.03473409307766e-16
1.82068487269945e-15
1.61563512563346e-15
1.0716568715196e-15
1.10519763894919e-16
2.13406941437207e-17
6.63494352363813e-16
1.73408950304081e-15
3.11485704817542e-15
2.46654492195512e-15
2.01596150479245e-15
3.82293324103331e-15
3.66286680146437e-15
3.35892758401548e-15
2.96743891228401e-15
1.08962451099379e-15
3.42268322217818e-15
2.66903389667433e-15
1.48304810766587e-15
5.03009336836105e-18
2.97145722314668e-17
6.40893285648925e-16
1.92101687812597e-15
3.13750142102759e-15
2.54991572565118e-15
2.7327156101093e-15
3.1472947146526e-15
3.47759759860616e-15
4.10213898781462e-15
3.86122227249716e-15
1.07051047271911e-15
2.47530263433908e-15
2.62640191278784e-15
1.2357647554335e-15
2.86462527376938e-17
1.32313171607361e-16
1.36733128960826e-16
1.40749273277203e-16
3.14277532331365e-16
1.45827110841989e-15
8.03667844428075e-16
1.30988542384624e-15
1.00433065301132e-15
8.35997240056311e-16
1.26633520597506e-15
2.54999917393604e-16
1.67387023508437e-15
1.53047618440559e-15
1.0342092418033e-15
8.22199508824835e-17
3.92760118344927e-18
9.75042864900241e-16
2.3934225801254e-15
3.21376668025878e-15
2.93882398171808e-15
1.86426480251848e-15
3.77110704457439e-15
3.70786999078001e-15
3.39566440702613e-15
3.07248862486236e-15
1.25017982309183e-15
3.67919748455555e-15
3.67522697882375e-15
1.64506396008002e-15
1.38636553379464e-16
2.12556640265246e-17
5.14235983000113e-16
1.22858435617355e-15
2.54606047849714e-15
1.93220138899736e-15
2.08852043996145e-15
2.00984944448822e-15
3.51183679639536e-17
1.11164595920926e-15
1.71485605512401e-15
2.98401498835049e-15
2.44696071057755e-15
2.26247398025776e-15
2.25868929323695e-15
6.96021342670564e-18
9.18354119463598e-16
1.91517664504327e-15
2.9323599103807e-15
1.89543299279682e-15
1.90213548089481e-15
1.86929719227805e-15
1.77089448529445e-17
1.12523567395089e-15
1.95291075495681e-15
2.47637765313363e-15
1.8159552307277e-15
2.13285229642366e-15
1.99596181176591e-15
5.38407689737134e-17
5.06338345116361e-16
1.53239153714688e-15
3.62136190336966e-15
2.5163355903243e-15
2.44038408054699e-15
2.10525786940849e-15
7.66583510593063e-17
9.08392344470119e-16
1.78103156978105e-15
3.05126847329033e-15
2.16353364972516e-15
1.9662082024419e-15
1.90800775656504e-15
1.60719854044049e-15
7.33141681879373e-14
1.71794004755924e-12
1.93133019267153e-11
1.77154081142372e-15
7.37218086270159e-14
1.71456688630282e-12
1.93145741447677e-11
1.22339789919333e-15
7.22186331284005e-14
1.71774514872128e-12
1.93126478684781e-11
1.53258775110917e-15
7.32195261496996e-14
1.71794614220942e-12
1.93130266759967e-11
1.82028452693806e-15
7.31944562595934e-14
1.71449395220546e-12
1.93143074756717e-11
1.16551639723632e-15
7.22725943566138e-14
1.7170112028134e-12
1.93126722522288e-11
)
;
    }
    sides
    {
        type            calculated;
        value           nonuniform List<scalar> 
84
(
0.529905942740395
0.55659704477558
0.614094907004522
0.529905950081756
0.556597046561306
0.614094905984312
0.529905942742597
0.556597044778205
0.614094907009666
0.529905942743252
0.556597044777329
0.614094907006429
0.529905950088214
0.556597046567189
0.614094905986892
0.529905942748276
0.556597044780222
0.614094907012677
0.664495077303167
0.646569889600936
0.60219780835619
0.664495080188202
0.646569892826237
0.602197810563356
0.6644950773062
0.646569889603437
0.602197808371155
0.664495077306094
0.646569889603276
0.602197808379167
0.664495080196961
0.646569892831032
0.602197810573936
0.664495077324347
0.646569889627963
0.602197808432063
0.525976615759117
0.525976616779737
0.525976615732903
0.525976615747884
0.525976616809894
0.525976615727105
0.396559395526557
0.396559394442511
0.39655939555213
0.39655939554468
0.396559394450837
0.396559395577046
0.175533856297969
0.175533855101184
0.175533856315004
0.175533856312857
0.175533855105795
0.175533856332545
0.0214479028637285
0.0214479027641417
0.0214479028656721
0.0214479028667337
0.0214479027661618
0.021447902867775
0.000431025964364956
0.000431025970729783
0.000431025964401875
0.000431025964448144
0.000431025970824217
0.00043102596444187
4.2652702741198e-06
4.26527040157158e-06
4.26527027714538e-06
4.26527027340534e-06
4.26527040182873e-06
4.26527027946566e-06
7.64185922740283e-08
7.64185906281272e-08
7.64185901296076e-08
7.64185935908346e-08
7.64185922281223e-08
7.64185905862911e-08
1.06459040596777e-09
1.06459151636532e-09
1.06459072828078e-09
1.06458964439498e-09
1.06459073635191e-09
1.0645911208442e-09
)
;
    }
}


// ************************************************************************* //
