/*--------------------------------*- C++ -*----------------------------------*\
  =========                 |
  \\      /  F ield         | OpenFOAM: The Open Source CFD Toolbox
   \\    /   O peration     | Website:  https://openfoam.org
    \\  /    A nd           | Version:  11
     \\/     M anipulation  |
\*---------------------------------------------------------------------------*/
FoamFile
{
    format      ascii;
    class       volScalarField;
    location    "0.0000200221";
    object      p;
}
// * * * * * * * * * * * * * * * * * * * * * * * * * * * * * * * * * * * * * //

dimensions      [1 -1 -2 0 0 0 0];

internalField   nonuniform List<scalar> 
900
(
345981.101046963
335889.576334275
323781.478226339
345998.77897967
336856.021250424
325062.15174064
346209.052486661
336534.985445663
326108.233069853
345981.099160885
335889.576459875
323781.479505614
345998.778280069
336856.02219945
325062.15317358
346209.0518351
336534.985376129
326108.232678658
345981.101045578
335889.576333133
323781.478225565
345998.778980002
336856.02125172
325062.151742612
346209.052488113
336534.985447137
326108.233070259
345981.101045474
335889.57633332
323781.478226006
345998.778979743
336856.021251516
325062.151741032
346209.052487872
336534.985446882
326108.233068706
345981.099159783
335889.576458154
323781.479503687
345998.77827848
336856.022194919
325062.153167591
346209.051836008
336534.985375907
326108.232677817
345981.101045823
335889.576335908
323781.478228382
345998.778978812
336856.021252429
325062.151744039
346209.052487951
336534.985445607
326108.23306965
301137.369535793
274678.872141112
249349.064719122
301898.810165286
275334.996730815
249708.383728087
302128.918274864
275631.790048211
249803.187947861
301137.371745618
274678.87302311
249349.065862143
301898.812386549
275334.997973267
249708.386312647
302128.917909947
275631.790361754
249803.187505345
301137.369538643
274678.872146661
249349.064681816
301898.810168197
275334.996724829
249708.383671884
302128.918272238
275631.790030412
249803.188026228
301137.369538293
274678.872145114
249349.064704751
301898.810167168
275334.99672887
249708.383763328
302128.91827236
275631.790045002
249803.188384114
301137.37174543
274678.873024938
249349.065873048
301898.812384624
275334.997978595
249708.38625663
302128.917912711
275631.79036243
249803.187108874
301137.369542174
274678.872146913
249349.064651449
301898.810172179
275334.996723287
249708.383679941
302128.918273449
275631.790025468
249803.18854381
221668.329048796
221829.069399222
221947.608873087
221668.329462544
221829.07330794
221947.610453381
221668.329036461
221829.069278781
221947.608847686
221668.329041717
221829.069339993
221947.60893464
221668.329473056
221829.073361898
221947.610393266
221668.329026897
221829.069209619
221947.608927806
181251.949236005
181270.252648936
181311.464642976
181251.949073501
181270.253022384
181311.465388607
181251.949237921
181270.252635004
181311.464620565
181251.94923681
181270.252640802
181311.464636873
181251.949076491
181270.25303447
181311.465397845
181251.94924113
181270.252627574
181311.464614513
130184.989890393
130157.60201506
130137.979124929
130184.989672724
130157.601783181
130137.979081798
130184.989893981
130157.602020585
130137.979125551
130184.98989338
130157.602018132
130137.979120592
130184.98967281
130157.601784248
130137.979090479
130184.989897508
130157.602025509
130137.9791284
104449.988567246
104444.842073657
104439.289644044
104449.988554271
104444.842048528
104439.289617159
104449.988567521
104444.842074518
104439.289645084
104449.988567663
104444.842074363
104439.28964433
104449.988554513
104444.842048693
104439.289618205
104449.988567814
104444.842075448
104439.289646942
101386.899479375
101386.824599448
101386.718223873
101386.899480013
101386.824599837
101386.718225145
101386.899479379
101386.824599457
101386.718223894
101386.899479385
101386.824599462
101386.718223896
101386.899480025
101386.824599849
101386.718225174
101386.899479384
101386.824599473
101386.718223954
101325.611673707
101325.611783212
101325.611705241
101325.611673728
101325.611783238
101325.611705255
101325.611673708
101325.611783213
101325.611705241
101325.611673707
101325.611783212
101325.61170524
101325.611673728
101325.611783238
101325.611705255
101325.611673708
101325.611783214
101325.611705241
101325.010961049
101325.010977287
101325.010996555
101325.010961049
101325.010977287
101325.010996555
101325.010961048
101325.010977287
101325.010996555
101325.010961049
101325.010977289
101325.010996555
101325.010961049
101325.010977287
101325.010996556
101325.010961049
101325.010977287
101325.010996555
101324.999847754
101324.999847626
101324.999847374
101324.999847754
101324.999847626
101324.999847375
101324.999847754
101324.999847626
101324.999847374
101324.999847754
101324.999847626
101324.999847374
101324.999847754
101324.999847626
101324.999847375
101324.999847754
101324.999847626
101324.999847374
376095.218012528
382498.525440332
383412.961842596
376095.216580163
382498.527881023
383412.960865715
376095.218012301
382498.525441893
383412.961842766
376095.218011812
382498.525443058
383412.961842098
376095.216579013
382498.527882799
383412.960865966
376095.218012114
382498.52544215
383412.961843375
101324.999999999
101325
101325
101325
101325
101325
101325
101325
101325
101325
101325
101325
101325
101325
101325
101324.999999981
101324.99999999
101324.999999999
101325
101325
101325
101325
101325.000000001
101325.000000001
101325.000000001
101325
101325
101325
101325
101325
101324.999999639
101324.999999892
101324.999999995
101325
101325
101325
101325
101325
101325
101325
101325
101325
101325
101325
101325
101324.999997129
101324.999999598
101324.999999992
101325.000000001
101325.000000001
101325.000000001
101325.000000001
101325.000000001
101325.000000001
101325.000000001
101325.000000001
101325
101325
101325
101325
101324.999999999
101324.999999999
101324.999999999
101324.999999999
101325
101324.999999999
101325
101324.999999999
101324.999999999
101325
101324.999999999
101325
101325
101324.999999999
101324.999999999
101324.99999998
101324.99999999
101324.999999999
101325
101325
101325
101325
101325
101325
101325
101325
101325
101325
101325
101325
101324.999999641
101324.999999893
101324.999999995
101325
101325
101325
101325
101325
101325
101325
101325
101325
101325
101325
101325
101324.99999713
101324.999999598
101324.999999992
101325
101325.000000001
101325.000000001
101325.000000001
101325
101325
101325.000000001
101325
101325
101325
101325
101325
101324.999999999
101324.999999999
101325
101325
101325
101325
101325
101325
101325
101325
101325
101325
101325
101325
101324.999999999
101324.999999981
101324.99999999
101324.999999999
101325.000000001
101325
101325
101325.000000001
101325.000000001
101325.000000001
101325
101325
101325.000000001
101325
101325
101325
101324.999999639
101324.999999892
101324.999999995
101325
101325
101325
101325
101325
101325
101325
101325
101325
101325
101325
101325
101324.999997129
101324.999999598
101324.999999992
101325.000000001
101325.000000001
101325.000000001
101325.000000001
101325.000000001
101325.000000001
101325.000000001
101325.000000001
101325.000000001
101325
101325
101325
101324.999999999
101325
101325
101325
101325
101325
101325
101325
101325
101325
101325
101325
101325
101325
101324.999999999
101324.999999981
101324.99999999
101324.999999999
101325.000000001
101325
101325.000000001
101325
101325.000000001
101325.000000001
101325.000000001
101325
101325
101325
101325
101325
101324.999999639
101324.999999892
101324.999999996
101325
101325
101325
101325
101325
101325
101325
101325
101325
101325
101325
101325
101324.999997129
101324.999999598
101324.999999992
101325.000000001
101325.000000001
101325
101325
101325.000000001
101325.000000001
101325.000000001
101325.000000001
101325
101325.000000001
101325
101325
101324.999999998
101324.999999999
101324.999999999
101324.999999999
101325
101324.999999999
101325
101324.999999999
101324.999999999
101325
101324.999999999
101325
101325
101324.999999999
101324.999999999
101324.99999998
101324.99999999
101324.999999999
101325
101325
101325
101325
101325
101325
101325
101325
101325
101325
101325
101325
101324.999999641
101324.999999893
101324.999999995
101325
101325
101325
101325
101325
101325
101325
101325
101325
101325
101325
101324.999999999
101324.99999713
101324.999999598
101324.999999992
101325
101325.000000001
101325.000000001
101325.000000001
101325
101325
101325.000000001
101325
101325
101325.000000001
101325
101325
101324.999999999
101324.999999999
101325
101325
101325
101325
101325
101325
101325
101325
101325
101325
101325
101325
101324.999999999
101324.999999981
101324.99999999
101324.999999999
101325.000000001
101325.000000001
101325.000000001
101325.000000001
101325.000000001
101325.000000001
101325
101325
101325.000000001
101325
101325
101325
101324.999999639
101324.999999892
101324.999999995
101325
101325
101325
101325
101325
101325
101325
101325
101325
101325
101325
101325
101324.999997129
101324.999999598
101324.999999992
101325.000000001
101325.000000001
101325.000000001
101325.000000001
101325.000000001
101325.000000001
101325.000000001
101325.000000001
101325.000000001
101325
101325
101325
101324.999984681
101324.999999503
101324.999999996
101325
101325
101325
101325
101325
101325
101325
101325
101325
101325
101325
101325
101324.999981409
101324.999999305
101324.999999995
101325
101325
101325
101325
101325
101325
101325
101325
101325
101325
101325
101325
101324.999979345
101324.999999163
101324.999999994
101325
101325
101325
101325
101325
101325
101325
101325
101325
101325
101325
101325
101324.999984681
101324.999999504
101324.999999996
101325
101325
101325
101325
101325
101325
101325
101325
101325
101325
101325
101325
101324.999981409
101324.999999305
101324.999999995
101325
101325
101325
101325
101325
101325
101325
101325
101325
101325
101325
101325
101324.999979347
101324.999999163
101324.999999994
101325
101325
101325
101325
101325
101325.000000001
101325.000000001
101325
101325
101325
101325
101325
101324.999984681
101324.999999503
101324.999999996
101325
101325
101325
101325
101325.000000001
101325
101325
101325
101325
101325
101325
101325
101324.999981409
101324.999999305
101324.999999995
101325
101325
101325
101325
101325
101325
101325
101325
101325
101325
101325
101325
101324.999979345
101324.999999163
101324.999999994
101325
101325
101325
101325
101325
101325
101325
101325
101325
101325
101325
101325
101324.999984681
101324.999999503
101324.999999996
101325
101325.000000001
101325
101325
101325
101325
101325
101325
101325
101325
101325
101325
101324.999981409
101324.999999305
101324.999999995
101325
101325.000000001
101325
101325
101325
101325
101325
101325
101325
101325
101325
101325
101324.999979345
101324.999999163
101324.999999994
101325
101325
101325
101325
101325
101325
101325
101325
101325
101325
101325
101325
101324.999984681
101324.999999504
101324.999999996
101325
101325
101325
101325
101325
101325
101325
101325
101325
101325
101325
101325
101324.999981409
101324.999999306
101324.999999995
101325
101325
101325
101325
101325
101325
101325
101325
101325
101325
101325
101325
101324.999979347
101324.999999163
101324.999999994
101325
101325.000000001
101325
101325.000000001
101325
101325
101325.000000001
101325
101325
101325
101325
101325
101324.999984681
101324.999999503
101324.999999996
101325.000000001
101325.000000001
101325
101325
101325
101325
101325
101325
101325
101325
101325
101325
101324.999981409
101324.999999305
101324.999999995
101325
101325
101325
101325
101325
101325
101325
101325
101325
101325
101325
101325
101324.999979345
101324.999999163
101324.999999994
101325
101325.000000001
101325
101325.000000001
101325
101325
101325
101325
101325
101325
101325
101325
)
;

boundaryField
{
    inlet
    {
        type            timeVaryingMappedFixedValue;
        fieldTable      p;
        value           uniform 381104.149818255;
    }
    outlet
    {
        type            freestreamPressure;
        freestreamValue uniform 101325;
        supersonic      false;
        value           nonuniform List<scalar> 
156
(
101324.999999999
101325
101325
101325
101325
101325
101325
101325
101325
101325
101325
101325
101325
101325
101325
101324.999999999
101324.999999999
101325
101325
101325
101325
101325
101325
101325
101325
101325
101325
101325
101325
101324.999999999
101324.999999999
101324.999999999
101325
101325
101325
101325
101325
101325
101325
101325
101325
101325
101325
101325
101325
101324.999999999
101325
101325
101325
101325
101325
101325
101325
101325
101325
101325
101325
101325
101325
101325
101324.999999999
101324.999999999
101325
101325
101325
101325
101325
101325
101325
101325
101325
101325
101325
101325
101324.999999999
101324.999999999
101324.999999999
101325
101325
101325
101325
101325
101325
101325
101325
101325
101325
101325
101325
101325
101325
101325
101325
101325
101325
101325
101325
101324.999999999
101325
101325
101325
101325
101325
101325
101325
101325
101325
101325
101325
101325
101325
101325
101325
101325
101325
101325
101325
101325
101324.999999999
101325
101325
101325
101325
101325
101325
101325
101325
101325
101325
101325
101325
101325
101325
101324.999999991
101324.999999859
101324.999999278
101324.999999999
101324.999999991
101324.99999986
101324.999999278
101324.999999999
101324.999999991
101324.999999859
101324.999999278
101325
101324.999999991
101324.999999859
101324.999999278
101324.999999999
101324.999999991
101324.99999986
101324.999999278
101324.999999999
101324.999999991
101324.999999859
101324.999999278
)
;
    }
    sides
    {
        type            zeroGradient;
    }
}


// ************************************************************************* //
