/*--------------------------------*- C++ -*----------------------------------*\
  =========                 |
  \\      /  F ield         | OpenFOAM: The Open Source CFD Toolbox
   \\    /   O peration     | Website:  https://openfoam.org
    \\  /    A nd           | Version:  11
     \\/     M anipulation  |
\*---------------------------------------------------------------------------*/
FoamFile
{
    format      ascii;
    class       surfaceScalarField;
    location    "0.0000200221";
    object      phi;
}
// * * * * * * * * * * * * * * * * * * * * * * * * * * * * * * * * * * * * * //

dimensions      [1 0 -1 0 0 0 0];

internalField   nonuniform List<scalar> 
2478
(
0.000392744942449924
-5.99216043039166e-05
-1.6650033944892e-12
1.1433725060489e-15
-0.000456124890132864
0.000338531794430283
-6.76570434627739e-05
-3.5865486470478e-13
2.17762006343714e-16
-7.40853857168525e-05
-2.82568077009798e-13
-6.81854746276134e-16
0.000293057061722181
0.000236991535635026
-1.33859822506003e-05
-1.03416098384476e-12
2.41885504681516e-16
-0.000272970852303305
0.000205283833185574
-1.68664223368095e-05
-3.5256603951421e-13
7.05788509233751e-16
-1.91083290072896e-05
6.70953093431792e-15
1.73523847200874e-15
0.000177850769384767
7.85153474487589e-05
-7.45179959404929e-13
-3.17500474696086e-15
-8.7251631345215e-05
6.93055529471443e-05
-4.89910385479894e-13
-4.64683630116425e-15
-4.54607434596105e-13
-3.73662147230835e-15
6.0115737824188e-05
0.000392744942256298
-5.99216008535981e-05
1.66532911592687e-12
-0.000456124894014709
0.000338531791802387
-6.7657042440485e-05
3.57848868809754e-13
-7.40853824233989e-05
2.81705024975445e-13
0.000293057060290394
0.00023699153659451
-1.33859797586715e-05
1.03486230002003e-12
-0.00027297085674947
0.000205283831854547
-1.68664211983392e-05
3.52256093218151e-13
-1.91083273310046e-05
-6.51881977217772e-15
0.000177850769298669
7.85153475419959e-05
7.47419026626492e-13
-8.72516313652889e-05
6.93055527910266e-05
4.95374574693841e-13
4.56982027089228e-13
6.01157379552861e-05
0.000392744942445781
-5.9921604302113e-05
6.37836138073222e-16
-0.000456124890130927
0.000338531794425502
-6.76570434587367e-05
8.88856046057929e-16
-7.40853857124967e-05
6.74427961394608e-16
0.000293057061719223
0.000236991535632279
-1.33859822502929e-05
5.58499644101595e-16
-0.0002729708523019
0.000205283833182787
-1.6866422336631e-05
9.29215471928702e-16
-1.91083290060677e-05
1.43396579332933e-15
0.000177850769381668
7.8515347448603e-05
-3.77898667219823e-16
-8.72516313447158e-05
6.93055529477845e-05
-6.10568453435212e-16
7.39236146254929e-16
6.01157378233039e-05
0.000392744942446268
-5.99216043024629e-05
-1.66440551120119e-12
-0.000456124890132454
0.000338531794424731
-6.76570434594679e-05
-3.56473097568033e-13
-7.40853857119512e-05
-2.80834031160179e-13
0.000293057061718269
0.000236991535632111
-1.33859822500756e-05
-1.03390183242048e-12
-0.000272970852302744
0.000205283833182153
-1.686642233792e-05
-3.5063580728148e-13
-1.91083290068304e-05
9.93554739349423e-15
0.000177850769381503
7.85153474479623e-05
-7.48507484292504e-13
-8.72516313443737e-05
6.93055529466768e-05
-4.97735587554754e-13
-4.5752732657188e-13
6.0115737823618e-05
0.000392744942257616
-5.99216008515735e-05
1.6648569187757e-12
-0.000456124894019893
0.000338531791799772
-6.76570424408352e-05
3.56854872258019e-13
-7.4085382422439e-05
2.80629740365829e-13
0.000293057060287596
0.000236991536592016
-1.33859797563867e-05
1.03361785276646e-12
-0.000272970856751404
0.000205283831847463
-1.6866421197119e-05
3.51191623525204e-13
-1.91083273289418e-05
-8.93434089731249e-15
0.000177850769293166
7.8515347539641e-05
7.4505739034933e-13
-8.72516313646568e-05
6.93055527864868e-05
4.89636922586939e-13
4.52954351543716e-13
6.01157379527087e-05
0.000392744942442967
-5.99216042961008e-05
-0.000456124890134559
0.000338531794418798
-6.76570434494462e-05
-7.40853857014232e-05
0.000293057061715346
0.000236991535625408
-1.33859822439333e-05
-0.000272970852299519
0.000205283833175096
-1.68664223271998e-05
-1.91083289969912e-05
0.000177850769377389
7.85153474455383e-05
-8.72516313442611e-05
6.93055529430899e-05
6.01157378212522e-05
0.000311538496518947
4.10854836490709e-06
-1.24523018307267e-12
-2.48916555770085e-15
0.000286024229046387
2.67793637284713e-06
-1.16661766510172e-12
-4.68199155660709e-15
1.34760939383494e-08
-1.12883568595054e-12
6.06220802723545e-15
0.000233914632571333
0.000188110640455428
6.60831453054773e-07
-1.26803182212178e-12
-1.80647055474104e-15
0.000172465257172806
6.171260423395e-07
-1.24400373357515e-12
-1.16041616420037e-14
-1.4288908051956e-07
3.11240779243133e-13
-1.47913094532964e-14
0.000140679958783953
6.31441437178351e-05
-9.51321297128563e-13
-3.67192170766528e-15
5.78032688950508e-05
-5.83851787446313e-13
-4.41248600158151e-15
-1.15401576641048e-11
7.69777579352759e-13
4.70069590812557e-05
0.000311538496562347
4.10855467041529e-06
1.24321990961455e-12
0.000286024230168288
2.67794139199856e-06
1.16065848338592e-12
1.34680472765425e-08
1.14086290328025e-12
0.000233914634766439
0.000188110641200529
6.6083427422228e-07
1.26682266564891e-12
0.000172465257599018
6.17127357081218e-07
1.23402232442976e-12
-1.42883974238412e-07
-3.34541991548268e-13
0.000140679959192703
6.314414387233e-05
9.51606333879709e-13
5.7803268773082e-05
5.79704334665795e-13
1.18940368079752e-11
4.70069585849656e-05
0.000311538496516502
4.10854837009332e-06
-1.96105067948316e-16
0.000286024229053326
2.67793640072186e-06
1.61600333808964e-16
1.34763688315761e-08
-7.43380509059255e-15
0.000233914632522908
0.000188110640454146
6.60831458538423e-07
-2.27953506765077e-17
0.000172465257185739
6.1712606814858e-07
3.16597876387492e-15
-1.42889328598055e-07
3.0437539424652e-14
0.000140679958786585
6.3144143717463e-05
1.28364116211421e-15
5.78032689006768e-05
3.62882467130898e-15
-1.46879307761499e-14
4.70069591114781e-05
0.000311538496516219
4.10854837222806e-06
-1.2430052375844e-12
0.000286024229051065
2.67793639759729e-06
-1.16150120662954e-12
1.34762449586047e-08
-1.15599720009081e-12
0.000233914632552445
0.000188110640453725
6.60831456382948e-07
-1.26565291992502e-12
0.000172465257173242
6.17126051013009e-07
-1.23729043503829e-12
-1.42889372396543e-07
2.84025163414456e-13
0.000140679958819296
6.31441437165759e-05
-9.51999221641964e-13
5.78032688863017e-05
-5.89381110105772e-13
-1.21367543022988e-11
4.70069591653652e-05
0.000311538496562097
4.10855466637913e-06
1.24312243983925e-12
0.000286024230170047
2.67794138070199e-06
1.16309040306892e-12
1.3467942600509e-08
1.15767088298448e-12
0.000233914634790153
0.000188110641196884
6.60834273257828e-07
1.26586680590859e-12
0.000172465257600588
6.17127354576792e-07
1.23325395035012e-12
-1.42883592168331e-07
-3.05802529566163e-13
0.000140679959148171
6.31441438717767e-05
9.4854240564532e-13
5.78032687793949e-05
5.86542397767661e-13
1.25677296802969e-11
4.7006958502985e-05
0.000311538496517738
4.10854837719875e-06
0.00028602422906453
2.67793641325052e-06
1.34765337538511e-08
0.000233914632497124
0.000188110640454285
6.60831464288219e-07
0.00017246525719272
6.17126068519757e-07
-1.42889589440075e-07
0.000140679958808039
6.31441437161377e-05
5.78032688889033e-05
4.7006959205257e-05
1.7085252617924e-05
-8.41553099450477e-12
-1.50652873422835e-14
0.000187439082976259
4.1969069052855e-06
-4.44127021400828e-13
-1.82221398343715e-13
0.00011247269932881
-3.88919395278263e-12
1.44914001588489e-13
3.74952704636806e-05
1.70852666596908e-05
8.40714775357174e-12
0.000187439083190776
4.19691386437985e-06
3.08816313450075e-13
0.000112472701706229
3.96952238332186e-12
3.74952712108829e-05
1.70852528341542e-05
1.17860907665468e-15
0.000187439082967696
4.19690682314022e-06
9.35543688958956e-14
0.000112472699249362
-3.10394342607073e-14
3.74952704406732e-05
1.70852527375363e-05
-8.41053607509613e-12
0.000187439082968841
4.19690677175614e-06
-3.82455840001322e-13
0.000112472699286043
-4.00833299928419e-12
3.74952704537695e-05
1.7085266578128e-05
8.40269634471216e-12
0.000187439083208238
4.19691401598924e-06
2.42008995308962e-13
0.000112472701750174
4.10398771173368e-12
3.74952712198559e-05
1.70852529598488e-05
0.000187439082961799
4.19690668107935e-06
0.00011247269920273
3.74952704314232e-05
9.11107026198093e-06
-2.57442340557447e-11
-3.99997418000508e-15
0.000103315044042481
2.27625331991385e-06
-1.53091691884252e-11
-8.70709212195953e-15
6.19337371503647e-05
-4.60010678095431e-12
-2.31247312965088e-14
2.06299360180011e-05
9.11112997975283e-06
2.57424976246503e-11
0.000103315043013953
2.27626759220374e-06
1.53040638972354e-11
6.19337366222915e-05
4.58329828625405e-12
2.06299360866767e-05
9.11107033616123e-06
-5.82596037385086e-16
0.00010331504405945
2.27625335215252e-06
9.86434241581624e-16
6.193373715823e-05
1.1387266997398e-14
2.06299360134928e-05
9.11107031247054e-06
-2.57453298046703e-11
0.000103315044052933
2.27625333345377e-06
-1.53079046563264e-11
6.19337371515746e-05
-4.60481709729267e-12
2.06299360110323e-05
9.11112994191087e-06
2.57436504297152e-11
0.000103315043013306
2.27626759066781e-06
1.53033180474559e-11
6.19337366282122e-05
4.5871159789438e-12
2.06299360958041e-05
9.1110703783317e-06
0.000103315044074919
2.27625337055596e-06
6.19337371627482e-05
2.06299360052652e-05
2.10056901614133e-06
4.96021897600923e-13
-5.02202446295286e-16
1.98435809938546e-05
5.39079339587122e-07
3.41598114812075e-13
-9.13792696025095e-16
1.18851914174906e-05
3.12418493852995e-13
-1.35375109559799e-14
3.95466197162898e-06
2.10056802462771e-06
-4.96467477588761e-13
1.98435808147693e-05
5.39078856182383e-07
-3.42640358360485e-13
1.18851912427836e-05
-3.18744000377819e-13
3.95466193007434e-06
2.10056900999011e-06
-4.46826820335589e-16
1.98435809968936e-05
5.39079344833197e-07
-7.46418985647646e-16
1.18851914224588e-05
-1.7688758444101e-16
3.95466197271268e-06
2.10056901430664e-06
4.95817471281301e-13
1.984358099693e-05
5.3907934626662e-07
3.4258538931034e-13
1.18851914204797e-05
3.15656870216938e-13
3.9546619713917e-06
2.10056802824119e-06
-4.95426914553718e-13
1.98435808152766e-05
5.39078851728806e-07
-3.41708866063994e-13
1.1885191242379e-05
-3.22685048169749e-13
3.95466193128761e-06
2.1005690065836e-06
1.98435809999377e-05
5.3907935353644e-07
1.18851914265459e-05
3.95466197351876e-06
3.08435745084625e-08
2.39067297316993e-13
-7.69648017193147e-17
6.51428362185842e-07
9.75010391938676e-09
1.45469533229144e-13
-1.19126713701845e-17
3.90131005752932e-07
4.71485779021327e-14
-1.51083572735855e-16
1.29739010578316e-07
3.08430190896873e-08
-2.39114189060953e-13
6.51428369294061e-07
9.7499827762061e-09
-1.45534571806966e-13
3.90131007756958e-07
-4.74036771207914e-14
1.29739009372839e-07
3.08435738262012e-08
-4.90059381963448e-17
6.51428362218856e-07
9.75010323066088e-09
-9.87301603319612e-17
3.9013100584864e-07
-3.88930424324863e-16
1.29739010633824e-07
3.08435740808803e-08
2.39033768364809e-13
6.51428362290955e-07
9.75010385139373e-09
1.45482787600702e-13
3.90131005857124e-07
4.78184928719844e-14
1.29739010611056e-07
3.08430195963079e-08
-2.39014496671193e-13
6.51428369405653e-07
9.74998273838099e-09
-1.45330606273267e-13
3.90131007796789e-07
-4.73245845723086e-14
1.29739009406982e-07
3.08435731565166e-08
6.51428362261872e-07
9.75010310172214e-09
3.90131005971494e-07
1.29739010732687e-07
1.26673945121585e-08
5.06471492349447e-15
-2.28224557308199e-17
1.33569348229946e-08
3.19370831089992e-09
4.01774154310669e-15
-3.69983991360678e-18
8.00739411211423e-09
1.82820880829937e-15
4.52383356469577e-17
2.66550714585602e-09
1.26673789613654e-08
-5.07582799576245e-15
1.33569352245017e-08
3.19370488595946e-09
-4.02041139095644e-15
8.00739431079428e-09
-1.82488843914613e-15
2.66550719699987e-09
1.26673945209676e-08
-1.31052937599185e-17
1.33569348246209e-08
3.19370828664089e-09
-9.21571846612679e-19
8.00739411332041e-09
2.58853268680914e-18
2.66550714643878e-09
1.26673945193142e-08
5.06009351173425e-15
1.33569348250817e-08
3.1937082915198e-09
4.01690128642301e-15
8.0073941132933e-09
1.84779221003989e-15
2.66550714654042e-09
1.2667378966163e-08
-5.05869760143718e-15
1.33569352274562e-08
3.19370489236981e-09
-4.01702325916742e-15
8.00739431256966e-09
-1.80836790854288e-15
2.66550719801631e-09
1.26673945218892e-08
1.33569348261659e-08
3.19370825195998e-09
8.00739411523132e-09
2.66550714835646e-09
1.77782614779916e-09
1.10127835670215e-16
-5.42101086242752e-20
5.16524949981806e-10
4.4445542160391e-10
8.85522124377536e-17
3.25260651745651e-19
3.10089208433936e-10
1.21972744404619e-17
-1.89735380184963e-18
1.03413950891681e-10
1.77782590244421e-09
-1.10588621593521e-16
5.16524968846924e-10
4.44455379428445e-10
-8.83082669489443e-17
3.10089221390152e-10
-1.3389896830196e-17
1.03413953154953e-10
1.77782614714864e-09
-4.33680868994202e-19
5.16524948843394e-10
4.44455423284423e-10
-2.16840434497101e-18
3.10089208217096e-10
-2.71050543121376e-19
1.03413950959443e-10
1.77782614958809e-09
1.10480201376273e-16
5.16524950686537e-10
4.44455423284423e-10
9.00972005335454e-17
3.10089209734979e-10
1.24683249835833e-17
1.03413951189836e-10
1.7778259029321e-09
-1.09829680072782e-16
5.16524969985336e-10
4.44455379076079e-10
-8.76848506997652e-17
3.10089222040674e-10
-1.27393755267047e-17
1.03413953426003e-10
1.77782614698601e-09
5.16524949439705e-10
4.44455424314415e-10
3.10089208976037e-10
1.03413951054311e-10
2.08086998153278e-11
1.92445885616177e-18
1.0842021724855e-19
-5.8381198096355e-12
5.19555205065123e-12
0
-1.0842021724855e-19
-3.50685236058523e-12
8.94466792300541e-19
8.13151629364128e-20
-1.17010229088409e-12
2.08086956411495e-11
-2.68340037690162e-18
-5.83812165277919e-12
5.19554944856601e-12
-2.11419423634673e-18
-3.50685382425817e-12
-1.51788304147971e-18
-1.17010304982561e-12
2.0808701387421e-11
-2.16840434497101e-19
-5.83812024331637e-12
5.1955512917097e-12
4.2554935270056e-18
-3.50685257742567e-12
-1.51788304147971e-18
-1.17010242640936e-12
2.08086985684953e-11
2.54787510534094e-18
-5.83811959279507e-12
5.19555541167796e-12
-9.75781955236954e-19
-3.50685290268632e-12
2.57498015965307e-18
-1.17010223667398e-12
2.0808697375873e-11
-1.49077798716757e-18
-5.83812078541746e-12
5.19554934014579e-12
-1.13841228110978e-18
-3.50685349899751e-12
-3.52365706057789e-19
-1.17010307693066e-12
2.08086987853358e-11
-5.83812121909832e-12
5.1955515898653e-12
-3.50685306531665e-12
-1.17010231798914e-12
6.96260432121731e-13
-4.06575814682064e-19
-8.13151629364128e-20
-3.46605041759776e-13
1.75285675731163e-13
-9.21571846612679e-19
-1.62630325872826e-19
-2.10224402447633e-13
-1.30104260698261e-18
0
-6.9746461481713e-14
6.96262166845207e-13
-5.42101086242752e-20
-3.46605394125482e-13
1.75287789925399e-13
4.06575814682064e-19
-2.10223629953585e-13
6.23416249179165e-19
-6.97477625243199e-14
6.96261407903687e-13
0
-3.46605339915373e-13
1.75286326252466e-13
5.42101086242752e-20
-2.10224022976872e-13
1.89735380184963e-19
-6.97467596373104e-14
6.96261407903687e-13
1.35525271560688e-19
-3.46604852024396e-13
1.75286136517086e-13
-4.33680868994202e-19
-2.10224253369834e-13
-9.75781955236954e-19
-6.97462717463328e-14
6.96261624744121e-13
1.35525271560688e-19
-3.46605123074939e-13
1.75287925450671e-13
6.7762635780344e-19
-2.10223494428313e-13
1.24683249835833e-18
-6.9747938707173e-14
6.96261082643035e-13
-3.46605339915373e-13
1.75285729941271e-13
-2.10224334684997e-13
-6.97463733902864e-14
4.64021441158416e-05
-5.6214012936727e-12
-3.69387680165811e-16
1.22594012356309e-05
-1.59790176966837e-12
8.73324849937074e-17
-2.54432835477408e-12
-1.45207196960984e-15
4.64021562707609e-05
5.62057041533781e-12
1.22594083888682e-05
1.5971948156418e-12
2.54730183344223e-12
4.64021441169652e-05
4.23164107921092e-16
1.22594012342658e-05
1.09103264617216e-15
8.37329337810555e-16
4.64021441154561e-05
-5.6206476647426e-12
1.22594012326319e-05
-1.59599774802316e-12
-2.54761321630617e-12
4.6402156268362e-05
5.62116987071898e-12
1.2259408388477e-05
1.59655107060189e-12
2.5438274533704e-12
4.6402144115943e-05
1.22594012379202e-05
-3.79470760369927e-18
5.24753851482984e-17
-4.33680868994202e-19
3.25260651745651e-19
-3.03576608295941e-18
4.11996825544492e-17
5.42101086242752e-20
2.16840434497101e-19
3.03576608295941e-18
2.16840434497101e-19
1.0842021724855e-19
7.58941520739853e-19
2.05998412772246e-18
-1.56125112837913e-17
-5.96311194867027e-19
-3.79470760369927e-19
-1.30104260698261e-18
-1.43114686768087e-17
-3.25260651745651e-19
-8.13151629364128e-19
-2.81892564846231e-18
-8.67361737988404e-18
-3.79470760369927e-19
1.62630325872826e-19
1.51788304147971e-18
-8.23993651088983e-18
-5.96311194867027e-19
1.0842021724855e-19
-2.38524477946811e-18
-1.99493199737333e-17
-8.67361737988404e-19
-7.58941520739853e-19
4.33680868994202e-19
-1.47451495458029e-17
-1.0842021724855e-19
9.21571846612679e-19
3.79470760369927e-18
-1.45283091113058e-17
-5.42101086242752e-19
5.42101086242752e-20
-2.81892564846231e-18
-7.15573433840433e-18
-3.25260651745651e-19
0
2.16840434497101e-19
-8.02309607639273e-18
-3.25260651745651e-19
1.0842021724855e-19
3.46944695195361e-18
-6.07153216591882e-18
-4.87890977618477e-19
-1.0842021724855e-19
8.67361737988404e-19
-5.20417042793042e-18
0
2.71050543121376e-19
-2.38524477946811e-18
1.0842021724855e-19
0
-4.27175655959289e-17
1.59811400224363e-15
-2.71050543121376e-19
5.96311194867027e-19
-3.77302356024956e-17
7.84962372879505e-16
6.50521303491303e-19
8.13151629364128e-19
-7.58941520739853e-19
4.31512464649231e-17
1.51788304147971e-18
-4.87890977618477e-19
1.19262238973405e-18
-1.23599047663348e-17
6.50521303491303e-19
-4.87890977618477e-19
1.19262238973405e-18
-1.14925430283463e-17
-2.16840434497101e-19
-3.25260651745651e-19
-1.51788304147971e-18
-1.47451495458029e-17
-7.58941520739853e-19
-7.58941520739853e-19
-2.05998412772246e-18
-1.01915004213637e-17
0
-1.0842021724855e-18
2.16840434497101e-19
-1.12757025938492e-17
1.24683249835833e-18
-1.0842021724855e-19
8.67361737988404e-19
-8.89045781438114e-18
1.19262238973405e-18
3.25260651745651e-19
3.68628738645072e-18
-4.77048955893622e-18
9.21571846612679e-19
8.13151629364128e-19
-7.58941520739853e-19
-1.14925430283463e-17
2.71050543121376e-19
5.42101086242752e-20
5.42101086242752e-19
-1.17093834628434e-17
1.0842021724855e-19
-1.35525271560688e-18
2.60208521396521e-18
-1.01915004213637e-17
1.62630325872826e-19
-1.02999206386123e-18
-8.67361737988404e-19
-1.25767452008319e-17
-9.75781955236954e-19
-5.96311194867027e-19
-1.0842021724855e-18
3.25260651745651e-19
2.16840434497101e-19
-1.3389896830196e-15
1.61997151804094e-14
1.78893358460108e-18
4.87890977618477e-19
-2.43728648374741e-16
4.55234808183214e-15
7.58941520739853e-19
1.0842021724855e-19
-1.84314369322536e-18
5.52943107967607e-17
9.75781955236954e-19
-1.62630325872826e-19
1.73472347597681e-18
-4.33680868994202e-18
1.46367293285543e-18
-5.42101086242752e-20
2.16840434497101e-19
-9.10729824887824e-18
4.33680868994202e-19
-5.42101086242752e-20
1.0842021724855e-19
-8.02309607639273e-18
5.96311194867027e-19
-6.50521303491303e-19
-1.62630325872826e-18
-6.50521303491303e-18
6.50521303491303e-19
-3.79470760369927e-19
0
-4.33680868994202e-18
1.35525271560688e-18
0
1.19262238973405e-18
-4.33680868994202e-18
7.04731412115578e-19
7.58941520739853e-19
7.58941520739853e-19
-4.33680868994202e-18
9.75781955236954e-19
2.71050543121376e-19
-5.42101086242752e-19
-7.58941520739853e-18
6.50521303491303e-19
-5.42101086242752e-20
1.0842021724855e-19
-3.90312782094782e-18
4.87890977618477e-19
-1.62630325872826e-19
1.84314369322536e-18
-4.33680868994202e-18
4.87890977618477e-19
-1.62630325872826e-19
1.84314369322536e-18
-6.93889390390723e-18
5.96311194867027e-19
1.0842021724855e-19
-6.50521303491303e-18
4.87890977618477e-19
4.87890977618477e-19
-1.24769443908546e-14
-9.75781955236954e-19
1.0842021724855e-19
9.08201465421588e-14
-3.73507648421256e-16
1.62630325872826e-18
-1.62630325872826e-19
2.29894228653826e-15
-1.73472347597681e-18
1.62630325872826e-19
-1.0842021724855e-19
-1.13841228110978e-17
2.16840434497101e-19
1.13841228110978e-18
-2.16840434497101e-19
-4.33680868994202e-19
3.25260651745651e-19
5.42101086242752e-19
-1.62630325872826e-19
-2.81892564846231e-18
3.25260651745651e-19
4.33680868994202e-19
-5.42101086242752e-20
-1.95156391047391e-18
-7.58941520739853e-19
3.25260651745651e-19
-1.0842021724855e-19
-1.84314369322536e-18
-2.16840434497101e-19
9.75781955236954e-19
1.62630325872826e-19
5.42101086242752e-19
3.79470760369927e-19
1.24683249835833e-18
2.71050543121376e-19
-4.33680868994202e-19
4.33680868994202e-19
9.75781955236954e-19
1.0842021724855e-19
1.40946282423116e-18
6.50521303491303e-19
1.35525271560688e-18
-1.62630325872826e-19
-1.84314369322536e-18
1.62630325872826e-19
0
-2.16840434497101e-19
-2.16840434497101e-19
1.13841228110978e-18
2.71050543121376e-19
1.0842021724855e-19
-2.27682456221956e-18
1.0842021724855e-18
6.50521303491303e-19
4.33680868994202e-19
-2.71050543121376e-18
1.84314369322536e-18
4.87890977618477e-19
-1.62630325872826e-18
1.0842021724855e-19
6.04984812246911e-17
7.04731412115578e-19
-2.16840434497101e-18
3.81639164714898e-17
0
1.30104260698261e-18
2.16840434497101e-19
3.79470760369927e-19
-1.40946282423116e-18
-1.04083408558608e-17
4.33680868994202e-19
1.0842021724855e-18
-1.06251812903579e-17
2.71050543121376e-19
-4.33680868994202e-19
-1.0842021724855e-17
4.33680868994202e-19
2.71050543121376e-18
-9.97465998686664e-18
6.50521303491303e-19
1.0842021724855e-19
-1.30104260698261e-17
4.87890977618477e-19
-2.60208521396521e-18
-1.34441069388203e-17
7.58941520739853e-19
3.25260651745651e-19
-1.25767452008319e-17
7.04731412115578e-19
-1.51788304147971e-18
-7.80625564189563e-18
3.25260651745651e-19
-2.60208521396521e-18
-1.12757025938492e-17
4.87890977618477e-19
5.20417042793042e-18
-6.93889390390723e-18
4.87890977618477e-19
1.0842021724855e-18
-6.50521303491303e-18
3.25260651745651e-19
-2.38524477946811e-18
5.42101086242752e-20
-4.34765071166687e-17
1.59464455529168e-15
8.67361737988404e-19
-3.77302356024956e-17
7.8236028766554e-16
1.62630325872826e-19
-6.50521303491303e-19
3.79470760369927e-17
-1.51788304147971e-18
-4.33680868994202e-19
-1.58293517182884e-17
-9.75781955236954e-19
0
-1.2793585635329e-17
-2.71050543121376e-19
3.25260651745651e-19
-1.25767452008319e-17
-4.87890977618477e-19
1.19262238973405e-18
-1.32272665043232e-17
-1.19262238973405e-18
-4.33680868994202e-19
-1.58293517182884e-17
-1.40946282423116e-18
-1.51788304147971e-18
-1.82145964977565e-17
-1.30104260698261e-18
2.38524477946811e-18
-1.17093834628434e-17
-1.0842021724855e-19
-2.60208521396521e-18
-1.45283091113058e-17
-4.87890977618477e-19
-4.33680868994202e-19
-1.19262238973405e-17
-9.21571846612679e-19
2.60208521396521e-18
-9.10729824887824e-18
-4.33680868994202e-19
1.95156391047391e-18
-1.0842021724855e-17
1.62630325872826e-19
-9.32413868337534e-18
1.62630325872826e-19
-1.33573707650214e-15
1.61927762865055e-14
-1.62630325872826e-18
-2.4307812707125e-16
4.54822811357669e-15
-8.13151629364128e-19
-2.27682456221956e-18
5.31259064517897e-17
-1.89735380184963e-18
4.33680868994202e-19
-1.17093834628434e-17
-1.62630325872826e-18
5.42101086242752e-19
-1.19262238973405e-17
-7.58941520739853e-19
1.0842021724855e-19
-1.12757025938492e-17
-9.75781955236954e-19
0
-1.01915004213637e-17
-9.75781955236954e-19
-1.19262238973405e-18
-9.32413868337534e-18
-1.62630325872826e-18
8.67361737988404e-19
-7.80625564189563e-18
3.25260651745651e-19
3.25260651745651e-19
-1.04083408558608e-17
-7.58941520739853e-19
-9.75781955236954e-19
-7.15573433840433e-18
-2.16840434497101e-19
3.25260651745651e-19
-8.02309607639273e-18
-7.58941520739853e-19
1.95156391047391e-18
-7.80625564189563e-18
-1.62630325872826e-19
1.51788304147971e-18
-1.06251812903579e-17
-3.79470760369927e-19
-5.85469173142172e-18
2.71050543121376e-19
-1.24759686088993e-14
1.02999206386123e-18
9.08185202389e-14
-3.73019757443638e-16
-1.95156391047391e-18
2.29894228653826e-15
-1.73472347597681e-18
-1.62630325872826e-19
-1.20346441145891e-17
3.25260651745651e-19
-1.30104260698261e-18
-6.17995238316738e-18
2.16840434497101e-19
-8.13151629364128e-19
-5.31259064517897e-18
3.25260651745651e-19
-3.79470760369927e-19
-3.79470760369927e-18
6.50521303491303e-19
-1.62630325872826e-19
-3.46944695195361e-18
-1.62630325872826e-19
-1.13841228110978e-18
-5.63785129692462e-18
-4.87890977618477e-19
-1.13841228110978e-18
-6.72205346941013e-18
1.40946282423116e-18
-4.33680868994202e-19
-4.44522890719057e-18
-1.24683249835833e-18
-1.02999206386123e-18
-6.07153216591882e-18
1.0842021724855e-19
-2.16840434497101e-19
-2.92734586571086e-18
1.19262238973405e-18
-1.0842021724855e-19
-3.14418630020796e-18
2.76471553983804e-18
-3.25260651745651e-19
-4.55364912443912e-18
-1.02999206386123e-18
-6.39679281766448e-18
-1.73472347597681e-18
5.00901403688303e-17
-1.0842021724855e-19
-6.83047368665868e-18
4.0766001685455e-17
-5.42101086242752e-20
-8.67361737988404e-19
4.33680868994202e-19
-4.33680868994202e-19
8.67361737988404e-19
-1.36609473733174e-17
-5.42101086242752e-20
2.05998412772246e-18
-1.12757025938492e-17
4.33680868994202e-19
-2.27682456221956e-18
-1.51788304147971e-17
-6.50521303491303e-19
-3.25260651745651e-19
-1.47451495458029e-17
-2.71050543121376e-19
2.49366499671666e-18
-1.43114686768087e-17
7.58941520739853e-19
-1.19262238973405e-18
-1.86482773667507e-17
-9.75781955236954e-19
1.51788304147971e-18
-1.19262238973405e-17
1.0842021724855e-19
-1.84314369322536e-18
-6.93889390390723e-18
0
2.16840434497101e-19
-1.36609473733174e-17
-1.62630325872826e-19
3.68628738645072e-18
-9.10729824887824e-18
0
1.62630325872826e-18
-7.58941520739853e-18
-5.42101086242752e-20
-2.38524477946811e-18
0
-4.40186082029115e-17
1.5929098318157e-15
-4.33680868994202e-19
-3.64291929955129e-17
7.81059245058557e-16
-7.04731412115578e-19
-2.05998412772246e-18
3.98986399474666e-17
-3.25260651745651e-19
9.75781955236954e-19
-1.17093834628434e-17
-2.71050543121376e-19
0
-9.54097911787244e-18
-1.0842021724855e-19
-7.58941520739853e-19
-9.75781955236954e-18
-5.96311194867027e-19
-4.33680868994202e-19
-4.77048955893622e-18
5.42101086242752e-19
3.25260651745651e-19
-1.0842021724855e-17
0
1.19262238973405e-18
-6.93889390390723e-18
-3.25260651745651e-19
1.30104260698261e-18
-1.01915004213637e-17
-8.13151629364128e-19
-2.38524477946811e-18
-8.89045781438114e-18
0
1.73472347597681e-18
-7.80625564189563e-18
1.24683249835833e-18
2.49366499671666e-18
-6.07153216591882e-18
2.71050543121376e-19
2.05998412772246e-18
-8.89045781438114e-18
8.13151629364128e-19
-5.42101086242752e-18
5.42101086242752e-19
-1.3387728425851e-15
1.61994983399749e-14
-5.42101086242752e-20
-2.42644446202256e-16
4.55191440096314e-15
1.0842021724855e-19
-2.16840434497101e-18
5.48606299277665e-17
-2.71050543121376e-19
1.73472347597681e-18
-4.33680868994202e-18
-1.0842021724855e-19
1.0842021724855e-19
-8.67361737988404e-18
-7.58941520739853e-19
0
-6.50521303491303e-18
-1.62630325872826e-19
-1.40946282423116e-18
-3.90312782094782e-18
1.0842021724855e-19
1.73472347597681e-18
-3.25260651745651e-18
5.42101086242752e-20
2.16840434497101e-19
-6.50521303491303e-18
-7.58941520739853e-19
1.51788304147971e-18
-5.20417042793042e-18
-2.71050543121376e-19
-1.51788304147971e-18
-8.45677694538693e-18
-8.67361737988404e-19
1.73472347597681e-18
-3.90312782094782e-18
1.0842021724855e-19
1.0842021724855e-18
-6.93889390390723e-18
-8.13151629364128e-19
1.62630325872826e-18
-7.37257477290143e-18
5.42101086242752e-20
-8.89045781438114e-18
5.42101086242752e-20
-1.24762938695511e-14
0
9.08187370793345e-14
-3.73832909073002e-16
2.16840434497101e-19
2.29850860566927e-15
-1.51788304147971e-18
5.42101086242752e-20
-1.06251812903579e-17
3.79470760369927e-19
1.62630325872826e-19
-5.42101086242752e-19
3.25260651745651e-19
-3.25260651745651e-19
-2.38524477946811e-18
2.71050543121376e-19
1.62630325872826e-19
-1.0842021724855e-18
-6.50521303491303e-19
4.87890977618477e-19
-6.50521303491303e-19
1.0842021724855e-19
1.62630325872826e-19
-1.0842021724855e-19
4.87890977618477e-19
-1.0842021724855e-19
-1.51788304147971e-18
2.16840434497101e-19
-2.16840434497101e-19
-1.40946282423116e-18
-5.42101086242752e-20
-3.25260651745651e-19
-2.49366499671666e-18
2.71050543121376e-19
1.62630325872826e-19
-1.30104260698261e-18
1.24683249835833e-18
-1.0842021724855e-19
-9.75781955236954e-19
1.30104260698261e-18
5.42101086242752e-20
-2.49366499671666e-18
-2.71050543121376e-19
-2.81892564846231e-18
-3.57786716920216e-18
5.18248638448071e-17
-4.33680868994202e-19
-3.90312782094782e-18
4.11996825544492e-17
5.42101086242752e-20
3.25260651745651e-19
-1.51788304147971e-18
-1.0842021724855e-19
2.27682456221956e-18
-1.40946282423116e-17
-4.87890977618477e-19
-1.95156391047391e-18
-1.58293517182884e-17
-3.79470760369927e-19
-1.0842021724855e-19
-1.19262238973405e-17
-1.62630325872826e-19
2.49366499671666e-18
-8.45677694538693e-18
-2.16840434497101e-19
-2.49366499671666e-18
-1.90819582357449e-17
-8.67361737988404e-19
8.67361737988404e-19
-1.43114686768087e-17
0
2.05998412772246e-18
-1.51788304147971e-17
-7.58941520739853e-19
-1.19262238973405e-18
-7.15573433840433e-18
-2.71050543121376e-19
2.16840434497101e-19
-1.04083408558608e-17
-4.87890977618477e-19
3.90312782094782e-18
-6.28837260041593e-18
-7.58941520739853e-19
1.51788304147971e-18
-6.50521303491303e-18
-2.16840434497101e-19
-2.16840434497101e-18
5.42101086242752e-20
-4.27175655959289e-17
1.59768032137464e-15
-1.0842021724855e-19
-3.89228579922296e-17
7.84095011141517e-16
7.04731412115578e-19
-1.73472347597681e-18
4.5102810375397e-17
1.51788304147971e-18
9.75781955236954e-19
-1.06251812903579e-17
1.0842021724855e-18
-1.0842021724855e-19
-9.75781955236954e-18
5.42101086242752e-20
1.40946282423116e-18
-7.15573433840433e-18
8.67361737988404e-19
-1.73472347597681e-18
-6.93889390390723e-18
3.25260651745651e-19
3.25260651745651e-19
-1.06251812903579e-17
1.35525271560688e-18
9.75781955236954e-19
-8.45677694538693e-18
1.24683249835833e-18
3.57786716920216e-18
-5.20417042793042e-18
8.67361737988404e-19
-7.58941520739853e-19
-1.19262238973405e-17
2.71050543121376e-19
4.33680868994202e-19
-1.23599047663348e-17
5.42101086242752e-20
3.79470760369927e-18
-1.01915004213637e-17
1.62630325872826e-19
1.62630325872826e-18
-1.32272665043232e-17