/*--------------------------------*- C++ -*----------------------------------*\
  =========                 |
  \\      /  F ield         | OpenFOAM: The Open Source CFD Toolbox
   \\    /   O peration     | Website:  https://openfoam.org
    \\  /    A nd           | Version:  11
     \\/     M anipulation  |
\*---------------------------------------------------------------------------*/
FoamFile
{
    format      ascii;
    class       volScalarField;
    location    "0.0000200221";
    object      rho;
}
// * * * * * * * * * * * * * * * * * * * * * * * * * * * * * * * * * * * * * //

dimensions      [1 -3 0 0 0 0 0];

internalField   nonuniform List<scalar> 
900
(
1.45748586350404
1.62417979787392
1.89895635353517
1.49215103650866
1.66328062199233
1.93829615870822
1.5290318224652
1.71080564770741
1.98927450001507
1.457485844754
1.62417976978446
1.89895631409332
1.49215102342197
1.66328060280691
1.93829613258156
1.52903181865731
1.71080564453002
1.98927449552888
1.45748586347258
1.62417979781093
1.89895635344346
1.49215103648529
1.66328062194952
1.93829615865511
1.52903182247079
1.71080564772133
1.98927450003747
1.45748586347595
1.62417979781668
1.8989563534501
1.49215103648212
1.66328062194432
1.93829615863974
1.52903182245516
1.710805647695
1.98927449999525
1.45748584474416
1.62417976975445
1.89895631403443
1.49215102338758
1.6632806027352
1.93829613247037
1.52903181860436
1.7108056444389
1.98927449540906
1.45748586343696
1.62417979773276
1.89895635331148
1.49215103642655
1.66328062184632
1.93829615851089
1.52903182241148
1.71080564762929
1.98927449993084
2.20639555557734
2.28977930800341
2.18197757267241
2.22661758049853
2.29731695836663
2.18406744095299
2.25131352078019
2.30443187329727
2.18426867196697
2.20639552573051
2.28977929702884
2.18197757884025
2.22661756171417
2.29731695383225
2.18406745404484
2.2513135166956
2.30443187585958
2.1842686680417
2.20639555550431
2.28977930796838
2.18197757239082
2.22661758044415
2.29731695825046
2.1840674406463
2.25131352077592
2.30443187316793
2.18426867250332
2.20639555550641
2.28977930796231
2.18197757252395
2.22661758043754
2.29731695828934
2.18406744115567
2.2513135207566
2.30443187326984
2.18426867471263
2.20639552567715
2.28977929700366
2.18197757888179
2.22661756163045
2.29731695382415
2.18406745364402
2.25131351661318
2.30443187580131
2.1842686655162
2.20639555537834
2.28977930786803
2.18197757209911
2.22661758032104
2.29731695813183
2.18406744065341
2.25131352070044
2.30443187309261
2.18426867576419
1.98425066815919
1.98447920737721
1.98402129329134
1.98425067419484
1.98447923484603
1.98402130389482
1.98425066802875
1.98447920657276
1.98402129313107
1.98425066807472
1.98447920696526
1.98402129368183
1.98425067423837
1.98447923515441
1.98402130346406
1.98425066789923
1.98447920605933
1.98402129361261
1.7022903502073
1.70214065581452
1.702017415578
1.70229035113749
1.70214066002035
1.70201742098159
1.70229035019128
1.7021406556901
1.70201741542659
1.70229035018883
1.70214065573438
1.70201741553031
1.70229035114849
1.70214066007699
1.70201742099811
1.70229035017588
1.70214065558808
1.70201741534115
1.3484904396728
1.34831579019077
1.34820441480571
1.34849043838104
1.34831578884003
1.34820441461992
1.34849043968987
1.34831579021659
1.34820441480934
1.34849043968688
1.34831579020161
1.34820441477137
1.34849043838126
1.34831578884037
1.34820441465741
1.3484904397055
1.3483157902314
1.34820441480549
1.16165508111176
1.16162286985524
1.16159033008679
1.16165508100326
1.16162286966295
1.16159032988639
1.1616550811132
1.16162286986031
1.16159033009483
1.16165508111433
1.16162286985931
1.16159033008867
1.16165508100517
1.16162286966341
1.16159032989067
1.1616550811148
1.16162286986517
1.16159033010528
1.13844428912245
1.13844378240932
1.13844307728088
1.13844428912699
1.13844378241204
1.1384430772907
1.13844428912248
1.13844378240936
1.13844307728105
1.13844428912253
1.1384437824094
1.13844307728105
1.13844428912709
1.13844378241212
1.13844307729085
1.13844428912251
1.13844378240944
1.13844307728143
1.13796705010735
1.13796705025988
1.13796704992132
1.13796705010751
1.13796705026008
1.13796704992143
1.13796705010735
1.13796705025989
1.13796704992132
1.13796705010735
1.13796705025987
1.13796704992131
1.13796705010751
1.13796705026008
1.13796704992143
1.13796705010735
1.13796705025989
1.13796704992132
1.13796231332271
1.13796231343961
1.13796231359143
1.1379623133227
1.1379623134396
1.13796231359143
1.1379623133227
1.1379623134396
1.13796231359143
1.13796231332271
1.13796231343962
1.13796231359143
1.13796231332271
1.1379623134396
1.13796231359143
1.1379623133227
1.13796231343961
1.13796231359143
1.13796222541087
1.1379622254106
1.13796222540878
1.13796222541087
1.1379622254106
1.13796222540878
1.13796222541087
1.1379622254106
1.13796222540878
1.13796222541087
1.1379622254106
1.13796222540878
1.13796222541087
1.1379622254106
1.13796222540878
1.13796222541087
1.1379622254106
1.13796222540878
1.39871651130619
1.44777684363267
1.46150872906681
1.39871650451496
1.44777684926563
1.46150872611253
1.39871651130113
1.44777684363359
1.46150872907134
1.39871651130132
1.44777684363595
1.46150872906427
1.39871650451314
1.44777684926147
1.46150872609296
1.39871651129706
1.44777684362131
1.46150872905372
1.13796222661448
1.13796222661448
1.13796222661448
1.13796222661448
1.13796222661448
1.13796222661448
1.13796222661448
1.13796222661448
1.13796222661448
1.13796222661448
1.13796222661448
1.13796222661448
1.13796222661448
1.13796222661448
1.13796222661448
1.13796222661433
1.1379622266144
1.13796222661447
1.13796222661448
1.13796222661448
1.13796222661448
1.13796222661448
1.13796222661448
1.13796222661448
1.13796222661448
1.13796222661448
1.13796222661448
1.13796222661448
1.13796222661448
1.13796222661448
1.13796222661163
1.13796222661363
1.13796222661444
1.13796222661448
1.13796222661448
1.13796222661448
1.13796222661448
1.13796222661448
1.13796222661448
1.13796222661448
1.13796222661448
1.13796222661448
1.13796222661448
1.13796222661448
1.13796222661448
1.13796222659175
1.13796222661129
1.13796222661441
1.13796222661448
1.13796222661448
1.13796222661448
1.13796222661448
1.13796222661448
1.13796222661448
1.13796222661448
1.13796222661448
1.13796222661448
1.13796222661448
1.13796222661448
1.13796222661448
1.13796222661447
1.13796222661448
1.13796222661448
1.13796222661448
1.13796222661448
1.13796222661448
1.13796222661448
1.13796222661448
1.13796222661448
1.13796222661448
1.13796222661448
1.13796222661448
1.13796222661449
1.13796222661448
1.13796222661448
1.13796222661433
1.1379622266144
1.13796222661447
1.13796222661448
1.13796222661448
1.13796222661448
1.13796222661448
1.13796222661448
1.13796222661448
1.13796222661448
1.13796222661448
1.13796222661448
1.13796222661448
1.13796222661448
1.13796222661448
1.13796222661164
1.13796222661363
1.13796222661445
1.13796222661448
1.13796222661448
1.13796222661448
1.13796222661448
1.13796222661448
1.13796222661448
1.13796222661448
1.13796222661448
1.13796222661448
1.13796222661448
1.13796222661448
1.13796222661448
1.13796222659176
1.1379622266113
1.13796222661441
1.13796222661448
1.13796222661448
1.13796222661448
1.13796222661448
1.13796222661448
1.13796222661448
1.13796222661448
1.13796222661448
1.13796222661448
1.13796222661448
1.13796222661448
1.13796222661448
1.13796222661448
1.13796222661448
1.13796222661448
1.13796222661448
1.13796222661448
1.13796222661448
1.13796222661448
1.13796222661448
1.13796222661448
1.13796222661448
1.13796222661448
1.13796222661448
1.13796222661448
1.13796222661448
1.13796222661448
1.13796222661433
1.1379622266144
1.13796222661447
1.13796222661448
1.13796222661448
1.13796222661448
1.13796222661448
1.13796222661448
1.13796222661448
1.13796222661448
1.13796222661448
1.13796222661448
1.13796222661448
1.13796222661448
1.13796222661448
1.13796222661163
1.13796222661363
1.13796222661444
1.13796222661448
1.13796222661448
1.13796222661448
1.13796222661448
1.13796222661448
1.13796222661448
1.13796222661448
1.13796222661448
1.13796222661448
1.13796222661448
1.13796222661448
1.13796222661448
1.13796222659175
1.13796222661129
1.13796222661441
1.13796222661448
1.13796222661448
1.13796222661448
1.13796222661448
1.13796222661448
1.13796222661448
1.13796222661448
1.13796222661448
1.13796222661448
1.13796222661448
1.13796222661448
1.13796222661448
1.13796222661448
1.13796222661448
1.13796222661448
1.13796222661448
1.13796222661448
1.13796222661448
1.13796222661448
1.13796222661448
1.13796222661448
1.13796222661448
1.13796222661448
1.13796222661448
1.13796222661448
1.13796222661448
1.13796222661448
1.13796222661433
1.1379622266144
1.13796222661447
1.13796222661448
1.13796222661448
1.13796222661448
1.13796222661448
1.13796222661448
1.13796222661448
1.13796222661448
1.13796222661448
1.13796222661448
1.13796222661448
1.13796222661448
1.13796222661448
1.13796222661163
1.13796222661363
1.13796222661444
1.13796222661448
1.13796222661448
1.13796222661448
1.13796222661448
1.13796222661448
1.13796222661448
1.13796222661448
1.13796222661448
1.13796222661448
1.13796222661448
1.13796222661448
1.13796222661448
1.13796222659175
1.13796222661129
1.13796222661441
1.13796222661448
1.13796222661448
1.13796222661448
1.13796222661448
1.13796222661448
1.13796222661448
1.13796222661448
1.13796222661448
1.13796222661448
1.13796222661448
1.13796222661448
1.13796222661448
1.13796222661447
1.13796222661448
1.13796222661448
1.13796222661448
1.13796222661448
1.13796222661448
1.13796222661448
1.13796222661448
1.13796222661448
1.13796222661448
1.13796222661448
1.13796222661448
1.13796222661449
1.13796222661448
1.13796222661448
1.13796222661433
1.1379622266144
1.13796222661447
1.13796222661448
1.13796222661448
1.13796222661448
1.13796222661448
1.13796222661448
1.13796222661448
1.13796222661448
1.13796222661448
1.13796222661448
1.13796222661448
1.13796222661448
1.13796222661448
1.13796222661164
1.13796222661363
1.13796222661445
1.13796222661448
1.13796222661448
1.13796222661448
1.13796222661448
1.13796222661448
1.13796222661448
1.13796222661448
1.13796222661448
1.13796222661448
1.13796222661448
1.13796222661448
1.13796222661448
1.13796222659176
1.1379622266113
1.13796222661441
1.13796222661448
1.13796222661448
1.13796222661448
1.13796222661448
1.13796222661448
1.13796222661448
1.13796222661448
1.13796222661448
1.13796222661448
1.13796222661448
1.13796222661448
1.13796222661448
1.13796222661448
1.13796222661448
1.13796222661448
1.13796222661448
1.13796222661448
1.13796222661448
1.13796222661448
1.13796222661448
1.13796222661448
1.13796222661448
1.13796222661448
1.13796222661448
1.13796222661448
1.13796222661448
1.13796222661448
1.13796222661433
1.1379622266144
1.13796222661447
1.13796222661448
1.13796222661448
1.13796222661448
1.13796222661448
1.13796222661448
1.13796222661448
1.13796222661448
1.13796222661448
1.13796222661448
1.13796222661448
1.13796222661448
1.13796222661448
1.13796222661163
1.13796222661363
1.13796222661444
1.13796222661448
1.13796222661448
1.13796222661448
1.13796222661448
1.13796222661448
1.13796222661448
1.13796222661448
1.13796222661448
1.13796222661448
1.13796222661448
1.13796222661448
1.13796222661448
1.13796222659175
1.13796222661129
1.13796222661441
1.13796222661448
1.13796222661448
1.13796222661448
1.13796222661448
1.13796222661448
1.13796222661448
1.13796222661448
1.13796222661448
1.13796222661448
1.13796222661448
1.13796222661448
1.13796222661448
1.1379622264932
1.13796222661054
1.13796222661444
1.13796222661448
1.13796222661448
1.13796222661448
1.13796222661448
1.13796222661448
1.13796222661448
1.13796222661448
1.13796222661448
1.13796222661448
1.13796222661448
1.13796222661448
1.13796222661448
1.13796222646731
1.13796222660897
1.13796222661444
1.13796222661448
1.13796222661448
1.13796222661448
1.13796222661448
1.13796222661448
1.13796222661448
1.13796222661448
1.13796222661448
1.13796222661448
1.13796222661448
1.13796222661448
1.13796222661448
1.13796222645096
1.13796222660785
1.13796222661443
1.13796222661448
1.13796222661448
1.13796222661448
1.13796222661448
1.13796222661448
1.13796222661448
1.13796222661448
1.13796222661448
1.13796222661448
1.13796222661448
1.13796222661448
1.13796222661448
1.1379622264932
1.13796222661055
1.13796222661445
1.13796222661448
1.13796222661448
1.13796222661448
1.13796222661448
1.13796222661448
1.13796222661448
1.13796222661448
1.13796222661448
1.13796222661448
1.13796222661448
1.13796222661448
1.13796222661448
1.13796222646731
1.13796222660898
1.13796222661444
1.13796222661448
1.13796222661448
1.13796222661448
1.13796222661448
1.13796222661448
1.13796222661448
1.13796222661448
1.13796222661448
1.13796222661448
1.13796222661448
1.13796222661448
1.13796222661448
1.13796222645098
1.13796222660785
1.13796222661443
1.13796222661448
1.13796222661448
1.13796222661448
1.13796222661448
1.13796222661448
1.13796222661449
1.13796222661449
1.13796222661448
1.13796222661448
1.13796222661448
1.13796222661448
1.13796222661448
1.1379622264932
1.13796222661054
1.13796222661444
1.13796222661448
1.13796222661448
1.13796222661448
1.13796222661448
1.13796222661448
1.13796222661448
1.13796222661448
1.13796222661448
1.13796222661448
1.13796222661448
1.13796222661448
1.13796222661448
1.13796222646731
1.13796222660897
1.13796222661444
1.13796222661448
1.13796222661448
1.13796222661448
1.13796222661448
1.13796222661448
1.13796222661448
1.13796222661448
1.13796222661448
1.13796222661448
1.13796222661448
1.13796222661448
1.13796222661448
1.13796222645097
1.13796222660785
1.13796222661443
1.13796222661448
1.13796222661448
1.13796222661448
1.13796222661448
1.13796222661448
1.13796222661448
1.13796222661448
1.13796222661448
1.13796222661448
1.13796222661448
1.13796222661448
1.13796222661448
1.1379622264932
1.13796222661054
1.13796222661445
1.13796222661448
1.13796222661448
1.13796222661448
1.13796222661448
1.13796222661448
1.13796222661448
1.13796222661448
1.13796222661448
1.13796222661448
1.13796222661448
1.13796222661448
1.13796222661448
1.13796222646731
1.13796222660897
1.13796222661444
1.13796222661448
1.13796222661448
1.13796222661448
1.13796222661448
1.13796222661448
1.13796222661448
1.13796222661448
1.13796222661448
1.13796222661448
1.13796222661448
1.13796222661448
1.13796222661448
1.13796222645097
1.13796222660785
1.13796222661443
1.13796222661448
1.13796222661448
1.13796222661448
1.13796222661448
1.13796222661448
1.13796222661448
1.13796222661448
1.13796222661448
1.13796222661448
1.13796222661448
1.13796222661448
1.13796222661448
1.1379622264932
1.13796222661055
1.13796222661445
1.13796222661448
1.13796222661448
1.13796222661448
1.13796222661448
1.13796222661448
1.13796222661448
1.13796222661448
1.13796222661448
1.13796222661448
1.13796222661448
1.13796222661448
1.13796222661448
1.13796222646731
1.13796222660898
1.13796222661444
1.13796222661448
1.13796222661448
1.13796222661448
1.13796222661448
1.13796222661448
1.13796222661448
1.13796222661448
1.13796222661448
1.13796222661448
1.13796222661448
1.13796222661448
1.13796222661448
1.13796222645098
1.13796222660785
1.13796222661443
1.13796222661448
1.13796222661449
1.13796222661448
1.13796222661449
1.13796222661448
1.13796222661448
1.13796222661449
1.13796222661448
1.13796222661448
1.13796222661448
1.13796222661448
1.13796222661448
1.1379622264932
1.13796222661054
1.13796222661444
1.13796222661448
1.13796222661448
1.13796222661448
1.13796222661448
1.13796222661448
1.13796222661448
1.13796222661448
1.13796222661448
1.13796222661448
1.13796222661448
1.13796222661448
1.13796222661448
1.13796222646731
1.13796222660897
1.13796222661444
1.13796222661448
1.13796222661448
1.13796222661448
1.13796222661448
1.13796222661448
1.13796222661448
1.13796222661448
1.13796222661448
1.13796222661448
1.13796222661448
1.13796222661448
1.13796222661448
1.13796222645096
1.13796222660785
1.13796222661443
1.13796222661448
1.13796222661448
1.13796222661448
1.13796222661448
1.13796222661448
1.13796222661448
1.13796222661448
1.13796222661448
1.13796222661448
1.13796222661448
1.13796222661448
1.13796222661448
)
;

boundaryField
{
    inlet
    {
        type            calculated;
        value           nonuniform List<scalar> 
24
(
1.36496446032148
1.36496446032148
1.36496446032148
1.36496446032148
1.36496446032148
1.36496446032148
1.36496446032148
1.36496446032148
1.36496446032148
1.36496446032148
1.36496446032148
1.36496446032148
1.36496446032148
1.36496446032148
1.36496446032148
1.36496446032148
1.36496446032148
1.36496446032148
1.36496446032148
1.36496446032148
1.36496446032148
1.36496446032148
1.36496446032148
1.36496446032148
)
;
    }
    outlet
    {
        type            calculated;
        value           nonuniform List<scalar> 
156
(
1.13796222661448
1.13796222661448
1.13796222661449
1.13796222661448
1.13796222661448
1.13796222661448
1.13796222661448
1.13796222661448
1.13796222661448
1.13796222661448
1.13796222661448
1.13796222661448
1.13796222661448
1.13796222661448
1.13796222661449
1.13796222661447
1.13796222661447
1.13796222661448
1.13796222661449
1.13796222661449
1.13796222661449
1.13796222661449
1.13796222661449
1.13796222661449
1.13796222661449
1.13796222661449
1.13796222661449
1.13796222661449
1.13796222661449
1.13796222661449
1.13796222661448
1.13796222661447
1.13796222661448
1.13796222661448
1.13796222661448
1.13796222661448
1.13796222661448
1.13796222661448
1.13796222661448
1.13796222661448
1.13796222661448
1.13796222661448
1.13796222661448
1.13796222661448
1.13796222661449
1.13796222661448
1.13796222661448
1.13796222661448
1.13796222661448
1.13796222661448
1.13796222661448
1.13796222661448
1.13796222661448
1.13796222661448
1.13796222661448
1.13796222661448
1.13796222661448
1.13796222661448
1.13796222661448
1.13796222661448
1.13796222661447
1.13796222661447
1.13796222661448
1.13796222661449
1.13796222661449
1.13796222661449
1.13796222661449
1.13796222661449
1.13796222661449
1.13796222661449
1.13796222661449
1.13796222661449
1.13796222661449
1.13796222661449
1.13796222661448
1.13796222661448
1.13796222661447
1.13796222661448
1.13796222661448
1.13796222661448
1.13796222661448
1.13796222661448
1.13796222661448
1.13796222661448
1.13796222661448
1.13796222661448
1.13796222661448
1.13796222661448
1.13796222661448
1.13796222661449
1.13796222661448
1.13796222661448
1.13796222661448
1.13796222661448
1.13796222661448
1.13796222661448
1.13796222661448
1.13796222661448
1.13796222661448
1.13796222661449
1.13796222661448
1.13796222661448
1.13796222661448
1.13796222661448
1.13796222661448
1.13796222661448
1.13796222661448
1.13796222661448
1.13796222661448
1.13796222661448
1.13796222661448
1.13796222661448
1.13796222661448
1.13796222661448
1.13796222661448
1.13796222661448
1.13796222661448
1.13796222661448
1.13796222661448
1.13796222661449
1.13796222661448
1.13796222661448
1.13796222661448
1.13796222661448
1.13796222661448
1.13796222661448
1.13796222661448
1.13796222661448
1.13796222661448
1.13796222661448
1.13796222661448
1.13796222661448
1.13796222661448
1.13796222661444
1.13796222661405
1.13796222661555
1.13796222661447
1.13796222661444
1.13796222661406
1.13796222661555
1.13796222661447
1.13796222661444
1.13796222661405
1.13796222661555
1.13796222661448
1.13796222661444
1.13796222661405
1.13796222661555
1.13796222661447
1.13796222661444
1.13796222661406
1.13796222661555
1.13796222661447
1.13796222661444
1.13796222661405
1.13796222661555
)
;
    }
    sides
    {
        type            calculated;
        value           nonuniform List<scalar> 
84
(
1.45748586350404
1.62417979787392
1.89895635353518
1.457485844754
1.62417976978446
1.89895631409332
1.45748586347258
1.62417979781093
1.89895635344346
1.45748586347595
1.62417979781668
1.8989563534501
1.45748584474416
1.62417976975445
1.89895631403443
1.45748586343696
1.62417979773276
1.89895635331148
2.20639555557734
2.28977930800341
2.18197757267241
2.20639552573051
2.28977929702884
2.18197757884025
2.20639555550431
2.28977930796838
2.18197757239082
2.20639555550641
2.28977930796231
2.18197757252395
2.20639552567715
2.28977929700366
2.18197757888179
2.20639555537834
2.28977930786803
2.18197757209911
1.98425066815919
1.98425067419484
1.98425066802875
1.98425066807472
1.98425067423837
1.98425066789923
1.7022903502073
1.70229035113749
1.70229035019128
1.70229035018883
1.70229035114849
1.70229035017588
1.3484904396728
1.34849043838104
1.34849043968987
1.34849043968688
1.34849043838126
1.3484904397055
1.16165508111176
1.16165508100326
1.1616550811132
1.16165508111433
1.16165508100517
1.1616550811148
1.13844428912245
1.13844428912699
1.13844428912248
1.13844428912253
1.13844428912709
1.13844428912251
1.13796705010735
1.13796705010751
1.13796705010735
1.13796705010735
1.13796705010751
1.13796705010735
1.13796231332271
1.1379623133227
1.1379623133227
1.13796231332271
1.13796231332271
1.1379623133227
1.13796222541087
1.13796222541087
1.13796222541087
1.13796222541087
1.13796222541087
1.13796222541087
)
;
    }
}


// ************************************************************************* //
