/*--------------------------------*- C++ -*----------------------------------*\
  =========                 |
  \\      /  F ield         | OpenFOAM: The Open Source CFD Toolbox
   \\    /   O peration     | Website:  https://openfoam.org
    \\  /    A nd           | Version:  11
     \\/     M anipulation  |
\*---------------------------------------------------------------------------*/
FoamFile
{
    format      ascii;
    class       volScalarField;
    location    "0.0000200221";
    object      T;
}
// * * * * * * * * * * * * * * * * * * * * * * * * * * * * * * * * * * * * * //

dimensions      [0 0 0 1 0 0 0];

internalField   nonuniform List<scalar> 
900
(
799.798368696958
696.778771944623
574.472848570315
781.257626593341
682.35640991428
565.039435593148
762.876758322491
662.768764763421
552.33114935406
799.798374626067
696.778784255648
574.472862772044
781.257631865559
682.35641970745
565.039445700232
762.876758786632
662.768765857409
552.331149937103
799.798368711019
696.778771969276
574.472848596686
781.257626606326
682.356409934465
565.039435612059
762.8767583229
662.768764760933
552.331149348529
799.798368708931
696.778771967197
574.472848595462
781.2576266074
682.356409936186
565.039435613796
762.876758330168
662.76876477063
552.33114935762
799.798374628921
696.778784264951
574.472862786442
781.257631879978
682.356419727693
565.039445722234
762.87675881505
662.768765892273
552.331149968947
799.798368731133
696.778772008566
574.472848641611
781.257626634391
682.35640997824
565.039435656583
762.876758352137
662.768764793578
552.331149377103
459.847433712099
404.170040324482
385.025904561638
456.823310080252
403.806203508827
385.21178712739
452.156527477215
402.993388147871
385.322534496362
459.847443307129
404.170043559405
385.025905238243
456.823317295283
403.806206128028
385.211788805397
452.156527751444
402.993388158203
385.322534506227
459.847433731672
404.170040338829
385.025904553721
456.823310095815
403.806203520467
385.211787094781
452.156527474141
402.993388144466
385.322534522626
459.8474337307
404.170040337626
385.025904565644
456.823310095613
403.806203519562
385.211787146007
452.156527478205
402.993388147976
385.322534684925
459.847443317961
404.170043566538
385.025905247751
456.823317309547
403.806206137267
385.211788789676
452.156527772134
402.993388169381
385.322534340187
459.847433763318
404.170040356913
385.025904558306
456.823310127099
403.806203539058
385.211787105956
452.156527491113
402.993388150409
385.322534745754
376.391321260795
376.620879379886
376.90910634688
376.391320818436
376.620880802979
376.90910701615
376.391321264592
376.620879328075
376.909106334191
376.391321264795
376.62087935751
376.909106377224
376.391320828027
376.620880836062
376.909106995896
376.39132127292
376.620879308093
376.90910637877
358.741431853298
358.809211356809
358.916773713134
358.741431335634
358.809211209433
358.916774049661
358.741431860464
358.80921135546
358.9167737007
358.741431858784
358.809211357601
358.91677371111
358.741431339233
358.809211221418
358.916774064466
358.741431870062
358.809211362257
358.916773706737
325.271139093616
325.24483368041
325.222663422151
325.271138861351
325.244833426806
325.222663359181
325.271139098464
325.244833687986
325.222663422831
325.271139097683
325.244833685469
325.222663419597
325.271138861512
325.244833429389
325.222663371832
325.271139103505
325.244833696718
325.222663430879
302.944930292813
302.938403599015
302.930784780658
302.944930283479
302.938403576275
302.930784754938
302.944930293238
302.938403600187
302.930784781578
302.944930293353
302.938403600001
302.930784780997
302.944930283682
302.938403576632
302.930784756856
302.944930293668
302.938403601617
302.930784784241
300.056160595412
300.056072539803
300.055943567858
300.056160596105
300.056072540235
300.055943569032
300.056160595418
300.056072539818
300.055943567876
300.056160595424
300.056072539823
300.05594356788
300.056160596116
300.056072540251
300.05594356908
300.056160595425
300.056072539844
300.055943567952
300.000539409491
300.000539693497
300.000539551898
300.000539409511
300.000539693519
300.00053955191
300.000539409492
300.000539693498
300.000539551898
300.000539409492
300.000539693497
300.000539551897
300.000539409511
300.000539693519
300.00053955191
300.000539409492
300.000539693498
300.000539551898
300.000009594328
300.000009611587
300.00000962861
300.000009594327
300.000009611587
300.00000962861
300.000009594327
300.000009611587
300.00000962861
300.000009594328
300.000009611589
300.000009628611
300.000009594328
300.000009611587
300.000009628611
300.000009594327
300.000009611587
300.00000962861
299.999999866542
299.999999866235
299.99999986597
299.999999866542
299.999999866234
299.99999986597
299.999999866542
299.999999866235
299.99999986597
299.999999866543
299.999999866235
299.99999986597
299.999999866542
299.999999866234
299.99999986597
299.999999866543
299.999999866235
299.99999986597
905.942426173156
890.144735926868
883.889278253319
905.942427121509
890.144738143462
883.889277787987
905.942426175889
890.144735929935
883.889278250974
905.942426174587
890.144735931192
883.889278253712
905.942427119918
890.144738150153
883.889277800398
905.942426178072
890.144735938084
883.889278263036
299.999999999998
299.999999999999
299.999999999999
299.999999999999
299.999999999999
300
300
300
300
300
300
300
300
299.999999999999
299.999999999998
299.999999999983
299.999999999992
300
300.000000000001
300.000000000001
300.000000000001
300.000000000001
300.000000000001
300.000000000001
300.000000000001
300.000000000001
300.000000000001
300.000000000001
300
299.999999999999
299.999999999684
299.999999999906
299.999999999996
300.000000000001
300.000000000001
300
300.000000000001
300.000000000001
300.000000000001
300.000000000001
300.000000000001
300.000000000001
300
300
299.999999999999
299.999999997494
299.99999999965
299.999999999994
300.000000000002
300.000000000002
300.000000000002
300.000000000002
300.000000000002
300.000000000002
300.000000000002
300.000000000002
300.000000000002
300.000000000002
300.000000000001
300.000000000001
299.999999999998
299.999999999997
299.999999999998
299.999999999998
299.999999999999
299.999999999998
299.999999999998
299.999999999998
299.999999999998
299.999999999998
299.999999999998
299.999999999998
299.999999999999
299.999999999998
299.999999999997
299.999999999982
299.999999999991
299.999999999999
300
300
300
300
300
300
300
300
300
300
300
299.999999999999
299.999999999685
299.999999999906
299.999999999996
300
300
300
300
300
300
300
300
300
300
299.999999999999
299.999999999999
299.999999997494
299.999999999649
299.999999999994
300.000000000001
300.000000000002
300.000000000002
300.000000000002
300.000000000001
300.000000000001
300.000000000002
300.000000000001
300.000000000002
300.000000000001
300.000000000001
300
299.999999999997
299.999999999998
299.999999999999
300
300
299.999999999999
300
300
300
300
300
300
300
299.999999999999
299.999999999998
299.999999999983
299.999999999992
300
300.000000000001
300.000000000001
300.000000000001
300.000000000001
300.000000000001
300.000000000001
300.000000000001
300.000000000001
300.000000000001
300.000000000001
300
299.999999999999
299.999999999684
299.999999999906
299.999999999996
300.000000000001
300.000000000001
300
300.000000000001
300.000000000001
300.000000000001
300.000000000001
300
300.000000000001
300
300
299.999999999999
299.999999997494
299.99999999965
299.999999999994
300.000000000002
300.000000000002
300.000000000002
300.000000000002
300.000000000002
300.000000000002
300.000000000002
300.000000000002
300.000000000002
300.000000000002
300.000000000001
300.000000000001
299.999999999998
299.999999999999
299.999999999999
300
300
300
300
300
300
300
300
300
300
299.999999999999
299.999999999998
299.999999999983
299.999999999992
300
300.000000000001
300.000000000001
300.000000000001
300.000000000001
300.000000000001
300.000000000001
300.000000000001
300.000000000001
300.000000000001
300.000000000001
300
299.999999999999
299.999999999684
299.999999999906
299.999999999997
300.000000000001
300.000000000001
300.000000000001
300.000000000001
300.000000000001
300.000000000001
300.000000000001
300.000000000001
300.000000000001
300.000000000001
300
299.999999999999
299.999999997494
299.99999999965
299.999999999995
300.000000000002
300.000000000002
300.000000000002
300.000000000002
300.000000000002
300.000000000002
300.000000000002
300.000000000002
300.000000000002
300.000000000002
300.000000000001
300.000000000001
299.999999999998
299.999999999997
299.999999999998
299.999999999998
299.999999999999
299.999999999998
299.999999999999
299.999999999998
299.999999999998
299.999999999999
299.999999999998
299.999999999998
299.999999999999
299.999999999998
299.999999999997
299.999999999982
299.999999999991
299.999999999999
300
300
300
300
300
300
300
300
300
300
300
299.999999999998
299.999999999685
299.999999999906
299.999999999996
300
300
300
300
300
300
300
300
300
300
299.999999999999
299.999999999998
299.999999997494
299.999999999649
299.999999999994
300.000000000002
300.000000000002
300.000000000002
300.000000000002
300.000000000001
300.000000000001
300.000000000002
300.000000000001
300.000000000001
300.000000000001
300.000000000001
300
299.999999999997
299.999999999998
299.999999999999
300
300
300
300
300
300
300
300
300
300
299.999999999999
299.999999999998
299.999999999983
299.999999999992
300
300.000000000001
300.000000000001
300.000000000001
300.000000000001
300.000000000001
300.000000000001
300.000000000001
300.000000000001
300.000000000001
300.000000000001
300
299.999999999999
299.999999999684
299.999999999906
299.999999999996
300.000000000001
300.000000000001
300
300.000000000001
300.000000000001
300.000000000001
300.000000000001
300.000000000001
300.000000000001
300
300
299.999999999999
299.999999997494
299.99999999965
299.999999999994
300.000000000002
300.000000000002
300.000000000002
300.000000000002
300.000000000002
300.000000000002
300.000000000002
300.000000000002
300.000000000002
300.000000000002
300.000000000001
300.000000000001
299.999999986619
299.999999999568
299.999999999998
300.000000000002
300.000000000002
300.000000000002
300.000000000002
300.000000000002
300.000000000002
300.000000000002
300.000000000002
300.000000000002
300.000000000002
300.000000000001
300.000000000001
299.999999983756
299.999999999394
299.999999999997
300.000000000001
300.000000000001
300.000000000001
300.000000000001
300.000000000001
300.000000000001
300.000000000001
300.000000000001
300.000000000001
300.000000000001
300.000000000001
300.000000000001
299.999999981953
299.99999999927
299.999999999995
300.000000000001
300.000000000001
300.000000000001
300.000000000001
300
300.000000000001
300.000000000001
300.000000000001
300.000000000001
300.000000000001
300
300
299.999999986619
299.999999999567
299.999999999997
300.000000000001
300.000000000001
300.000000000001
300.000000000001
300.000000000002
300.000000000002
300.000000000001
300.000000000001
300.000000000001
300.000000000001
300.000000000001
300.000000000001
299.999999983755
299.999999999394
299.999999999996
300.000000000001
300.000000000001
300.000000000001
300.000000000001
300.000000000001
300.000000000001
300.000000000001
300.000000000001
300.000000000001
300.000000000001
300
300
299.999999981955
299.99999999927
299.999999999995
300.000000000001
300.000000000001
300
300.000000000001
300
300.000000000001
300.000000000001
300.000000000001
300.000000000001
300.000000000001
300.000000000001
300
299.999999986619
299.999999999568
299.999999999998
300.000000000002
300.000000000002
300.000000000002
300.000000000002
300.000000000002
300.000000000002
300.000000000002
300.000000000002
300.000000000002
300.000000000001
300.000000000001
300.000000000001
299.999999983756
299.999999999394
299.999999999996
300.000000000001
300.000000000001
300.000000000001
300.000000000001
300.000000000001
300.000000000001
300.000000000001
300.000000000001
300.000000000001
300.000000000001
300.000000000001
300.000000000001
299.999999981953
299.99999999927
299.999999999995
300.000000000001
300.000000000001
300.000000000001
300.000000000001
300.000000000001
300.000000000001
300.000000000001
300.000000000001
300.000000000001
300.000000000001
300
300
299.999999986619
299.999999999568
299.999999999998
300.000000000002
300.000000000002
300.000000000002
300.000000000002
300.000000000002
300.000000000002
300.000000000002
300.000000000002
300.000000000002
300.000000000002
300.000000000001
300.000000000001
299.999999983756
299.999999999394
299.999999999997
300.000000000001
300.000000000001
300.000000000001
300.000000000001
300.000000000001
300.000000000001
300.000000000001
300.000000000001
300.000000000001
300.000000000001
300.000000000001
300.000000000001
299.999999981953
299.99999999927
299.999999999995
300.000000000001
300.000000000001
300.000000000001
300.000000000001
300.000000000001
300.000000000001
300.000000000001
300.000000000001
300.000000000001
300.000000000001
300.000000000001
300
299.999999986618
299.999999999568
299.999999999998
300.000000000001
300.000000000001
300.000000000001
300.000000000001
300.000000000001
300.000000000001
300.000000000001
300.000000000001
300.000000000001
300.000000000001
300.000000000001
300.000000000001
299.999999983756
299.999999999395
299.999999999996
300.000000000001
300.000000000001
300.000000000001
300.000000000001
300.000000000001
300.000000000001
300.000000000001
300.000000000001
300.000000000001
300.000000000001
300.000000000001
300
299.999999981955
299.99999999927
299.999999999995
300.000000000001
300.000000000001
300.000000000001
300.000000000001
300
300.000000000001
300.000000000001
300.000000000001
300.000000000001
300.000000000001
300
300
299.999999986619
299.999999999568
299.999999999998
300.000000000002
300.000000000002
300.000000000002
300.000000000002
300.000000000002
300.000000000002
300.000000000002
300.000000000002
300.000000000002
300.000000000002
300.000000000001
300.000000000001
299.999999983756
299.999999999394
299.999999999996
300.000000000001
300.000000000001
300.000000000001
300.000000000001
300.000000000001
300.000000000001
300.000000000001
300.000000000001
300.000000000001
300.000000000001
300.000000000001
300.000000000001
299.999999981953
299.99999999927
299.999999999995
300.000000000001
300.000000000001
300.000000000001
300.000000000001
300
300.000000000001
300.000000000001
300.000000000001
300.000000000001
300.000000000001
300
300
)
;

boundaryField
{
    inlet
    {
        type            timeVaryingMappedFixedValue;
        fieldTable      T;
        value           nonuniform List<scalar> 
24
(
940.707968238749
940.707968238749
940.707968238749
940.707968238749
940.707968238749
940.707968238749
940.707968238749
940.707968238749
940.707968238749
940.707968238749
940.707968238749
940.707968238749
940.707968238749
940.707968238749
940.707968238749
940.707968238749
940.707968238749
940.707968238749
940.707968238749
940.707968238749
940.707968238749
940.707968238749
940.707968238749
940.707968238749
)
;
    }
    outlet
    {
        type            freestream;
        freestreamValue uniform 300;
        value           nonuniform List<scalar> 
156
(
299.999999999998
300
299.999999999999
299.999999999999
299.999999999999
300
300
300
300
300
300
300
300
299.999999999999
299.999999999998
300
300
299.999999999998
299.999999999998
299.999999999999
299.999999999998
299.999999999998
299.999999999998
299.999999999998
299.999999999998
299.999999999998
299.999999999998
299.999999999999
299.999999999998
299.999999999997
299.999999999997
300
299.999999999999
300
300
299.999999999999
300
300
300
300
300
300
300
299.999999999999
299.999999999998
299.999999999998
300
299.999999999999
300
300
300
300
300
300
300
300
300
300
299.999999999999
299.999999999998
300
300
299.999999999998
299.999999999998
299.999999999999
299.999999999998
299.999999999999
299.999999999998
299.999999999998
299.999999999999
299.999999999998
299.999999999998
299.999999999999
299.999999999998
299.999999999997
299.999999999997
300
299.999999999999
300
300
300
300
300
300
300
300
300
300
299.999999999999
299.999999999998
299.999999999998
299.999999999999
299.999999999999
300.000000000001
300.000000000001
300.000000000001
300
299.999999999997
299.999999999999
299.999999999999
300
300.000000000001
300
300
299.999999999998
299.999999999999
299.999999999999
300.000000000001
300.000000000001
300.000000000001
300
299.999999999998
299.999999999999
299.999999999999
300.000000000001
300.000000000001
300.000000000001
300
299.999999999997
299.999999999998
299.999999999998
300
300.000000000001
300
300
299.999999999998
299.999999999999
299.999999999999
300.000000000001
300.000000000001
300.000000000001
300
299.999999999998
299.999999999984
299.999999999697
299.999999997582
300
299.999999999983
299.999999999697
299.999999997582
300
299.999999999984
299.999999999697
299.999999997582
299.999999999998
299.999999999984
299.999999999697
299.999999997582
300
299.999999999983
299.999999999697
299.999999997582
300
299.999999999984
299.999999999697
299.999999997581
)
;
    }
    sides
    {
        type            zeroGradient;
    }
}


// ************************************************************************* //
