/*--------------------------------*- C++ -*----------------------------------*\
  =========                 |
  \\      /  F ield         | OpenFOAM: The Open Source CFD Toolbox
   \\    /   O peration     | Website:  https://openfoam.org
    \\  /    A nd           | Version:  11
     \\/     M anipulation  |
\*---------------------------------------------------------------------------*/
FoamFile
{
    format      ascii;
    class       volVectorField;
    location    "0.0000200221";
    object      U;
}
// * * * * * * * * * * * * * * * * * * * * * * * * * * * * * * * * * * * * * //

dimensions      [0 1 -1 0 0 0 0];

internalField   nonuniform List<vector> 
900
(
(-11.1412941407055 -19.2972853002518 301.507441435029)
(-6.83887450461238 -11.8452780364106 297.353022267818)
(-4.32310415217495 -7.48783569260882 299.575908564524)
(-6.91142876518399 -11.9709434917132 295.733901383637)
(-4.14229110588631 -7.17465872912967 292.967269551693)
(-2.33579433006638 -4.04571398299475 297.203256237884)
(-4.40736587081079 -7.63378027942318 281.863247183704)
(-2.97192282799713 -5.14752111093797 285.261064049048)
(-2.00041618566936 -3.46482201149727 293.916444999817)
(-22.2825876224566 -3.4301082841265e-10 301.507446592671)
(-13.6777485259916 6.0652668444351e-10 297.35302572244)
(-8.64620937090893 1.61261736549202e-09 299.575911565857)
(-13.822857154246 -3.7647189180363e-10 295.733907892694)
(-8.28458235254382 1.95852505391215e-09 292.967272516291)
(-4.67159021249931 2.23833878800109e-09 297.203258461106)
(-8.81473144744234 -1.13587139093298e-09 281.863248734809)
(-5.94384607623403 -3.53297519618532e-09 285.261064209857)
(-4.00083274488134 -1.47137980097718e-09 293.916445467643)
(-11.1412941406337 19.2972853004272 301.507441438772)
(-6.83887450573398 11.845278037733 297.353022274109)
(-4.3231041544153 7.48783569479689 299.57590857352)
(-6.91142876459689 11.9709434911785 295.733901385903)
(-4.14229110522001 7.17465872952382 292.967269554468)
(-2.33579433222345 4.04571398407385 297.203256242843)
(-4.40736587307175 7.63378027629235 281.86324718105)
(-2.97192283352076 5.14752110560851 285.26106404873)
(-2.00041619081664 3.46482200902447 293.916444998959)
(11.1412941391546 19.2972853007636 301.50744143881)
(6.8388745036743 11.8452780382131 297.35302227325)
(4.32310415304788 7.48783569514691 299.575908571646)
(6.91142876295932 11.9709434921267 295.733901387291)
(4.14229110168925 7.17465873091137 292.967269555389)
(2.33579432972648 4.04571398478054 297.203256242772)
(4.4073658737366 7.6337802760702 281.863247183076)
(2.97192283496542 5.14752110250721 285.261064049128)
(2.00041619079449 3.46482200680559 293.916445000255)
(22.28258762235 4.61498257124503e-10 301.507446596879)
(13.6777485234356 -9.60225101346664e-10 297.353025727581)
(8.64620936826379 -2.17451120750055e-09 299.575911570781)
(13.8228571532205 6.56417103371234e-10 295.733907900194)
(8.28458234682568 -1.71081100617243e-10 292.967272522417)
(4.67159020613829 -3.10937170869424e-09 297.203258464705)
(8.81473144933146 -1.71426335416744e-09 281.863248741302)
(5.94384607552927 -6.37473258919744e-09 285.261064209692)
(4.00083274493866 -5.49407901474303e-09 293.916445467929)
(11.141294139164 -19.2972853016294 301.507441445563)
(6.8388745066204 -11.8452780400864 297.353022282988)
(4.32310415831711 -7.48783569788147 299.575908586051)
(6.91142876234857 -11.9709434915216 295.733901392177)
(4.142291105495 -7.17465873107907 292.967269562143)
(2.33579433616975 -4.04571398670381 297.203256253456)
(4.4073658757636 -7.63378028135512 281.863247187032)
(2.97192283736206 -5.14752111207828 285.261064047479)
(2.00041619636518 -3.46482201373141 293.916445000013)
(-1.96858823580349 -3.40969398938388 291.313024343538)
(-1.10557335063728 -1.91490831262097 266.175501244569)
(-0.174129668396612 -0.301600776161007 242.0842076308)
(-0.770470235183965 -1.33449274682499 290.308120790353)
(-0.326103431266408 -0.564827016826537 266.567114445897)
(0.115008407219268 0.199202429031462 242.740559672821)
(-0.715160160689945 -1.23869293447771 288.922807840678)
(-0.394947734475699 -0.684069128955984 267.11985972617)
(0.050288912531204 0.0871178576920901 243.691864660134)
(-3.93717812214135 1.49302852056487e-09 291.31302852844)
(-2.21114781837893 3.3549794537614e-09 266.175503600422)
(-0.348258056537922 8.3970073892472e-09 242.084208728147)
(-1.54094350922492 2.30764610019189e-09 290.308124542924)
(-0.65220911757163 4.70933642138801e-09 266.567116414205)
(0.230021102525385 1.4143752583821e-08 242.740558327395)
(-1.43032093969419 4.04012115535107e-11 288.922809134343)
(-0.789895839614945 6.32769927948223e-09 267.119860015285)
(0.100578239438755 -1.36991733339685e-07 243.691860759218)
(-1.96858823643506 3.40969399108602 291.313024350865)
(-1.10557335184487 1.91490831564832 266.175501250201)
(-0.174129706329398 0.301600805805919 242.084207634307)
(-0.770470236394577 1.3344927489411 290.308120794049)
(-0.326103435520434 0.564827025572611 266.567114464411)
(0.115008350250896 -0.199202376840499 242.740559733076)
(-0.71516016411511 1.23869293579571 288.92280783913)
(-0.394947745477334 0.68406912989092 267.119859743652)
(0.050289277313257 -0.0871181390590152 243.691864783855)
(1.96858823657405 3.40969399203712 291.313024350508)
(1.10557335251336 1.9149083168642 266.175501249735)
(0.174129704165324 0.301600796103229 242.084207641224)
(0.770470236119201 1.33449275015709 290.308120795643)
(0.326103434839815 0.564827026025107 266.567114455231)
(-0.11500841591836 -0.19920248597745 242.740559696205)
(0.715160162483757 1.23869293456215 288.922807841923)
(0.394947744626296 0.684069127386336 267.119859724324)
(-0.0502890104235025 -0.0871177579870657 243.691864653823)
(3.93717811953908 -6.47400300248975e-10 291.313028535649)
(2.21114781792133 1.52138313679974e-09 266.175503604702)
(0.348258025879349 -8.64596605460589e-09 242.084208735381)
(1.5409435047999 -1.92538787842388e-09 290.308124548502)
(0.652209113710576 2.74788626582052e-10 266.567116412949)
(-0.230021044979378 -1.15836793394912e-08 242.74055831658)
(1.43032093973201 -3.3737628139426e-09 288.922809138664)
(0.789895838259512 -4.08572715130145e-09 267.119860022465)
(-0.100578086589972 1.5693493655692e-07 243.691860746101)
(1.96858823952199 -3.40969399164635 291.313024368532)
(1.10557335443169 -1.91490831487193 266.175501266128)
(0.174129717076279 -0.301600820084454 242.084207660182)
(0.77047024120325 -1.33449274949407 290.308120809855)
(0.32610344115892 -0.564827025646191 266.567114484814)
(-0.115008397842145 0.199202460000575 242.740559767561)
(0.715160167173484 -1.23869293695235 288.922807846683)
(0.394947743146507 -0.684069119927581 267.119859748644)
(-0.0502892905294706 0.0871180065109979 243.691864741848)
(0.0414778557339977 0.0718418267236367 209.098386455433)
(0.125855619778954 0.217987976014033 209.373277836779)
(0.0910654466911989 0.157733296116362 209.744394385294)
(0.0829565640147439 6.58089500831642e-09 209.098386739945)
(0.251712329932336 3.04869732067171e-09 209.373277578871)
(0.18212874792701 -7.65248098897287e-08 209.74439499216)
(0.0414778321132775 -0.0718418038373591 209.098386446062)
(0.12585560225184 -0.217987936547144 209.373277846031)
(0.0910655988134141 -0.157733386059448 209.744394369841)
(-0.0414778354547193 -0.0718418105676055 209.09838645207)
(-0.125855620677512 -0.217987966100367 209.373277862181)
(-0.0910654836754706 -0.157733360126284 209.744394422529)
(-0.082956577752238 -5.58430435055099e-09 209.09838675455)
(-0.251712317790246 9.68068519011542e-10 209.373277561167)
(-0.182128650937028 8.22392395360621e-08 209.744394956664)
(-0.0414778211476478 0.0718417921450316 209.09838644604)
(-0.125855591369243 0.217987928658746 209.373277873024)
(-0.0910656182788811 0.157733449348762 209.744394410553)
(0.00976717298543418 0.016917120963155 153.962727803454)
(0.00182705342962288 0.00316428038712001 153.98718366957)
(0.00590865292353925 0.0102337670397826 154.022333630351)
(0.0195343886759714 3.60323084261312e-09 153.962727272949)
(0.00365440028783841 3.14795187209747e-09 153.987184044896)
(0.0118169614233096 -3.84351625470967e-09 154.02233422231)
(0.00976716655104378 -0.0169171181224702 153.962727814901)
(0.00182704225852153 -0.00316426657217612 153.987183653011)
(0.00590866120153057 -0.010233768093382 154.022333605674)
(-0.00976716488469546 -0.0169171177398508 153.962727811653)
(-0.00182704456603621 -0.00316427305183461 153.987183661866)
(-0.00590864842901806 -0.010233776382519 154.022333622048)
(-0.0195343896807475 -2.98684490603574e-09 153.962727276943)
(-0.00365440112795109 -3.30709341977807e-09 153.987184063783)
(-0.0118169367944101 3.39924104275874e-09 154.022334241615)
(-0.00976716256692661 0.016917118604717 153.962727826607)
(-0.00182703351874711 0.00316426129773216 153.987183648285)
(-0.00590864668353374 0.0102337721649269 154.022333605066)
(-0.00296555354245756 -0.00513664681281043 64.9275696464083)
(-0.0244147250073715 -0.0422878206608592 64.8705027347182)
(-0.0155566832956943 -0.0269456946743661 64.8032966629452)
(-0.00593121660947292 6.06675442487978e-10 64.9275691807494)
(-0.0488295591609634 7.8035069699728e-10 64.8705023114877)
(-0.031113497207378 4.0302450578829e-09 64.8032965170068)
(-0.00296555292872431 0.0051366467864042 64.9275696531892)
(-0.0244147243613777 0.0422878226435282 64.8705027433858)
(-0.0155566956694069 0.0269457074578413 64.8032966643235)
(0.0029655542851396 0.00513664679531555 64.9275696523179)
(0.0244147265765325 0.0422878237106945 64.8705027400413)
(0.0155566955420115 0.0269456920968904 64.8032966614096)
(0.00593121767206316 -2.0720960219677e-10 64.9275691824708)
(0.0488295573146715 -1.23439860569101e-10 64.8705023154359)
(0.0311134974501141 -5.28632493477702e-09 64.8032965302419)
(0.00296555500605538 -0.0051366453782528 64.9275696601762)
(0.0244147282388955 -0.0422878216751563 64.8705027524327)
(0.015556714588547 -0.0269457150817367 64.8032966677596)
(-0.000282876431977732 -0.000489966745368475 7.65803680177422)
(-0.00298747262370425 -0.00517447525513988 7.64567876488583)
(-0.00206163252656807 -0.00357091278301716 7.63054088310339)
(-0.000565757337463222 7.71516460164558e-11 7.65803676609945)
(-0.00597495791988265 9.05116212017024e-11 7.6456787083727)
(-0.00412328460968589 3.51141057236001e-10 7.63054083988887)
(-0.000282876435441292 0.000489966774410718 7.65803680247354)
(-0.00298747236812926 0.00517447519688419 7.64567876659523)
(-0.00206163340490785 0.00357091442597633 7.63054088450099)
(0.000282876611805725 0.00048996669840726 7.65803680285404)
(0.00298747273206159 0.00517447531659144 7.64567876635465)
(0.00206163391732237 0.0035709128901016 7.63054088368817)
(0.000565757394053266 -3.53619683792408e-11 7.65803676682329)
(0.00597495785758326 -1.82868350156849e-11 7.64567870902505)
(0.00412328445186154 -5.1060444093272e-10 7.6305408420551)
(0.000282876682252238 -0.000489966570964124 7.65803680322979)
(0.00298747265158432 -0.00517447457384168 7.64567876858763)
(0.00206163669183965 -0.00357091584699075 7.63054088749433)
(4.17507195148248e-06 7.23151196600257e-06 0.153167328901767)
(-2.14235189045316e-05 -3.71065413978963e-05 0.152991037737838)
(-2.01252885009212e-05 -3.48575604241439e-05 0.152731625188963)
(8.35003810664989e-06 2.75077787282832e-12 0.153167331163726)
(-4.28471498724544e-05 4.42285916427718e-12 0.152991039076704)
(-4.02516232958218e-05 9.52492094946624e-12 0.152731626424398)
(4.17506851519074e-06 -7.23150956397028e-06 0.153167328914888)
(-2.1423524475925e-05 3.71065459458629e-05 0.15299103775903)
(-2.01253023560613e-05 3.48575724301034e-05 0.152731625207797)
(-4.17506586773017e-06 -7.23151175802262e-06 0.153167328931331)
(2.14235282775519e-05 3.71065417286883e-05 0.152991037773856)
(2.01253195699079e-05 3.48575624921759e-05 0.152731625216087)
(-8.35003830283032e-06 -1.06744636099622e-12 0.153167331197287)
(4.28471486118618e-05 -3.77114872394337e-12 0.152991039112623)
(4.02516270936895e-05 -3.02529062289153e-11 0.152731626486534)
(-4.17506350875714e-06 7.23151170055867e-06 0.153167328929102)
(2.14235301737826e-05 -3.71065337536129e-05 0.152991037799503)
(2.01253671363221e-05 -3.48575769905885e-05 0.152731625298603)
(1.70055798700978e-07 2.94551209760012e-07 0.00151554625072702)
(2.95003744513322e-07 5.109705942167e-07 0.00151610614833467)
(1.87950250440499e-07 3.25563990471843e-07 0.00151617987986857)
(3.40117395583447e-07 2.68705018374162e-13 0.0015155462960134)
(5.90009769741586e-07 3.34135406726513e-13 0.00151610619116671)
(3.7589891482262e-07 6.23886213122481e-13 0.00151617991384735)
(1.70056071837414e-07 -2.94550737885622e-07 0.00151554625180214)
(2.95003200986703e-07 -5.109693768277e-07 0.00151610615007298)
(1.8794882231872e-07 -3.25561920750873e-07 0.00151617988033042)
(-1.70055122643589e-07 -2.94550475288244e-07 0.00151554625047338)
(-2.95002468029806e-07 -5.10969380364411e-07 0.00151610614767955)
(-1.87948183536072e-07 -3.2556351526895e-07 0.00151617987949209)
(-3.4011713869315e-07 5.0461762836834e-13 0.00151554629610483)
(-5.90009891841144e-07 3.99475830554885e-13 0.00151610619117862)
(-3.75898683321718e-07 5.83426947074522e-14 0.00151617991451453)
(-1.70055726811349e-07 2.94551643417039e-07 0.00151554625262645)
(-2.95002546194807e-07 5.10969645521335e-07 0.00151610615115164)
(-1.87946849138209e-07 3.25562174440399e-07 0.0015161798814958)
(3.43388923068051e-09 5.94824866401368e-09 2.71532167976353e-05)
(1.13071287788952e-08 1.9585049199912e-08 2.71947010915151e-05)
(8.30739101234697e-09 1.43887715257282e-08 2.72480570430949e-05)
(6.86778582164214e-09 1.60924259646381e-13 2.71532162129349e-05)
(2.26148974626788e-08 -1.0989319682393e-13 2.71947006326777e-05)
(1.6615785957361e-08 2.4165421478658e-13 2.72480571034572e-05)
(3.43441284112074e-09 -5.9473534412124e-09 2.71532160358049e-05)
(1.13088777216619e-08 -1.95846114354771e-08 2.71947003756275e-05)
(8.30866784950587e-09 -1.43882615928691e-08 2.72480571246529e-05)
(-3.43404228173016e-09 -5.94793044916447e-09 2.71532172655761e-05)
(-1.13069432323077e-08 -1.95843276362837e-08 2.71947024124794e-05)
(-8.30615509156725e-09 -1.43866116815462e-08 2.72480579088056e-05)
(-6.8676044960137e-09 7.554981159411e-13 2.71532167814945e-05)
(-2.26151262490687e-08 1.52031742306629e-12 2.71947010901932e-05)
(-1.6615220399581e-08 1.24389916093485e-12 2.72480577039552e-05)
(-3.43400771536855e-09 5.9484003321544e-09 2.71532161978966e-05)
(-1.13075177917631e-08 1.95855887702228e-08 2.71947008700419e-05)
(-8.30717307124442e-09 1.43891483134851e-08 2.72480572417604e-05)
(-8.1065816401979e-10 -1.4037692330692e-09 -3.78269060754856e-07)
(-7.65058114908383e-10 -1.32497214336877e-09 -3.79541492983294e-07)
(-4.92651326594128e-10 -8.5238416376472e-10 -3.8025821816645e-07)
(-1.62109552489618e-09 2.20051520081615e-13 -3.78269455021756e-07)
(-1.53077121542913e-09 2.55874653203571e-13 -3.79542153002499e-07)
(-9.864793198486e-10 4.19418967417482e-13 -3.80259635105306e-07)
(-8.10512768592042e-10 1.40419689529209e-09 -3.78269174005109e-07)
(-7.650936801966e-10 1.32546204577999e-09 -3.7954163310344e-07)
(-4.92790289712895e-10 8.53039101087128e-10 -3.80258560341381e-07)
(8.10761423483778e-10 1.40438737371857e-09 -3.78268787632951e-07)
(7.65295393806555e-10 1.32570438252527e-09 -3.79541375897078e-07)
(4.92636428433991e-10 8.52879013728388e-10 -3.80258152875602e-07)
(1.62111469844437e-09 2.59776783857165e-13 -3.78269177780987e-07)
(1.53090060506475e-09 2.53671055859132e-13 -3.79541978005373e-07)
(9.86663955109617e-10 1.95066021502167e-13 -3.80259648614339e-07)
(8.10637468325365e-10 -1.40368876778788e-09 -3.78269315111559e-07)
(7.65086444347593e-10 -1.32501263963191e-09 -3.79541757044524e-07)
(4.92671954017605e-10 -8.52404764911979e-10 -3.80258241001914e-07)
(-13.8994360339483 -24.0745244603141 282.065767121873)
(-6.72068809177129 -11.6405672672613 262.494795958453)
(-5.01751198593148 -8.69058233336443 243.70903355961)
(-27.798872392784 2.90823269258205e-10 282.065773492187)
(-13.4413777915081 1.19458388278789e-09 262.494799547541)
(-10.0350242932639 -6.72689210522537e-10 243.709034372124)
(-13.8994360340474 24.0745244605961 282.065767123238)
(-6.72068809225878 11.6405672681428 262.494795958388)
(-5.01751198784735 8.69058232884586 243.709033556796)
(13.8994360325308 24.0745244604046 282.065767124275)
(6.72068809167123 11.6405672706384 262.494795958673)
(5.01751198682 8.69058232496477 243.70903355802)
(27.7988723913572 9.19984974164035e-10 282.065773496742)
(13.4413777926248 -1.50688149872819e-09 262.494799552857)
(10.0350242893604 -6.80682062847857e-10 243.709034377282)
(13.8994360320794 -24.0745244600312 282.065767127851)
(6.72068809352094 -11.6405672673002 262.494795964005)
(5.0175119882847 -8.69058233253521 243.709033562967)
(-7.60061523330279e-13 -8.58404907369553e-13 5.93483212314255e-15)
(-4.55286725993667e-13 -6.54379888480609e-13 -8.08471779209055e-13)
(1.88311830508852e-13 4.56490157628838e-13 -4.95130314179317e-14)
(5.22005256712189e-13 6.76142132885971e-13 4.37204864087427e-13)
(3.69253581565229e-13 4.82134152675781e-13 1.35009629616105e-13)
(2.49067695655644e-13 4.09688704510904e-13 -3.83021255735978e-13)
(5.61136302173216e-13 8.90253354543766e-13 -1.81082435145119e-13)
(7.55378630189313e-13 1.01338464892784e-12 -4.33036477879542e-14)
(7.45174373685416e-13 1.30176289728868e-12 -1.36192506535056e-13)
(7.02051796875594e-13 1.27234961603e-12 3.38323815318785e-13)
(2.21645321711798e-13 2.97353262578465e-13 7.43199900621122e-14)
(4.93407482138847e-13 8.50740192497094e-13 -2.23156325847743e-13)
(4.29898229653611e-13 7.4184520386905e-13 4.77170768004539e-13)
(6.49951748296057e-14 1.03419701811741e-13 5.32908056118275e-13)
(3.5286130036846e-14 -2.13283023597342e-14 -4.63318600335292e-14)
(-2.43126154226383e-11 -4.19603889694789e-11 -3.41234344937015e-12)
(-1.28871692187691e-11 -2.24732020507352e-11 -1.14033402136887e-11)
(-8.68929149789309e-13 -1.70561367876877e-12 -2.26555525943278e-12)
(8.74184103241398e-13 1.20939407542065e-12 2.21026155198752e-13)
(7.47998523190836e-13 1.18125695775028e-12 2.50173184848254e-13)
(6.56497324997309e-13 1.04245783749142e-12 -1.44658192799559e-13)
(7.16638903309668e-13 8.61545228571886e-13 -3.73547758752541e-13)
(9.80638759351308e-13 1.2180447240324e-12 -1.1057053105268e-13)
(7.96682193207149e-13 9.92004027584209e-13 4.94035136217732e-14)
(5.94122855722161e-13 9.55875019101591e-13 4.54339486217299e-13)
(5.69809048269851e-13 8.49281048925491e-13 1.6326791500922e-13)
(6.66391289380973e-13 9.28675662734654e-13 -1.43410151654527e-13)
(5.68440782858009e-13 7.88329694506792e-13 4.49225059250646e-13)
(5.17805027143684e-13 8.60816199431595e-13 5.68210091615635e-13)
(2.18525986907632e-13 2.91314121511877e-13 3.29544530446579e-16)
(-4.8695406151286e-10 -8.43840365498019e-10 -2.20321351944524e-10)
(-1.36511215165035e-10 -2.3683897083524e-10 -1.98916247858013e-10)
(-3.91838260823356e-12 -7.10524348513129e-12 -1.22174555659403e-11)
(7.61624376586831e-13 8.07063933666495e-13 8.23858592578387e-14)
(7.39300887339955e-13 1.0865502369843e-12 2.45533339329282e-13)
(7.84662884991247e-13 1.07487711533593e-12 4.39644639144475e-14)
(6.97930990444319e-13 6.89104949814696e-13 -2.60280847051947e-13)
(7.59371078362974e-13 5.07433273637268e-13 -1.30158774664593e-13)
(5.56194987479524e-13 4.99962952603704e-13 1.12995153778563e-13)
(4.04061841743742e-13 4.8618191003657e-13 4.11409568341926e-13)
(6.49322256649301e-13 9.93910431396493e-13 6.00499070888543e-14)
(6.25763564034446e-13 7.85781682373366e-13 -1.30483747259386e-13)
(5.14894114621725e-13 6.71184068739421e-13 3.7914416496355e-13)
(6.32995927224576e-13 9.54242272502343e-13 6.79079352396306e-13)
(3.42947501523219e-13 4.82281120153657e-13 2.33788795338125e-13)
(-3.9787678522899e-09 -6.89140576950204e-09 -4.55781112092144e-09)
(-3.89757424554818e-10 -6.75200038801816e-10 -1.0733281277531e-09)
(-2.57104179801862e-12 -4.95653665997586e-12 -2.32500898482309e-11)
(7.53107282291316e-13 2.95306919577283e-13 -1.88866148338342e-13)
(8.92544096645131e-13 1.13727953308992e-12 1.07609634944858e-13)
(8.36117466003986e-13 1.01222431152269e-12 1.2887150789812e-13)
(7.31721681093172e-13 7.54289661755887e-13 -1.55595161601899e-13)
(6.61907210471203e-13 1.98790132501106e-13 -1.63440183937728e-13)
(6.87670625658648e-13 3.80580848836911e-13 2.11621117992515e-14)
(5.30614827256288e-13 3.71580604813559e-13 2.2178986660149e-13)
(7.63282484462884e-13 7.8625208698821e-13 1.35779609271307e-13)
(4.97893839362806e-13 4.29615433271184e-13 9.69114863570975e-14)
(5.06801797883254e-13 6.96997256082083e-13 2.74785181505206e-13)
(6.87411164557707e-13 9.38952185681228e-13 5.3199722444401e-13)
(7.81979115767868e-13 8.19159653929993e-13 5.5036695660204e-13)
(-1.76589393759997e-12 -1.62363193299458e-13 5.87867085706779e-13)
(-8.02340213224415e-13 -1.5623092910965e-13 -3.56273084920148e-13)
(-5.55441477781102e-14 -1.12762513158921e-13 -1.20089250962761e-13)
(9.08819977649425e-14 6.97362326544052e-14 -1.16921884091553e-14)
(3.88619390499267e-13 1.14223665483444e-13 4.14981985189833e-14)
(1.06315670977826e-13 2.92062966883264e-14 3.43707529153293e-14)
(3.16525749476086e-13 5.056201828859e-14 1.15913132842739e-13)
(2.64461226648808e-13 6.28463603273602e-14 3.11333239299602e-13)
(2.34430960161344e-13 -5.02562232093966e-14 -2.3436805748483e-13)
(4.68614243457248e-13 -1.0855532771383e-14 -7.60087036631914e-14)
(4.09526857502938e-14 2.73422641481547e-14 -9.32515739152706e-14)
(5.63326866708092e-13 2.62587430933849e-14 -4.61262812741874e-13)
(5.26558816706035e-13 -1.3960718896036e-14 3.27945951318266e-13)
(1.35608965916973e-13 -7.84170492070122e-15 6.08596820665505e-13)
(-4.12142915628261e-14 -6.16800743641928e-14 -9.58155206512869e-14)
(-4.91151878812061e-11 -1.38233149996213e-13 -3.130280503598e-12)
(-2.49661616061661e-11 -1.1974867761571e-13 -1.15244403773824e-11)
(-1.10119691307545e-12 -6.71752394197777e-14 -1.98588469232957e-12)
(1.60839098509011e-12 9.14869639542135e-14 -1.2394264785803e-13)
(1.33439613065089e-12 8.46046762269733e-14 7.5125823145263e-15)
(1.34745479769816e-12 1.12739391651086e-13 4.462637936943e-14)
(1.38171298239505e-12 1.36620434660029e-13 1.72651513920027e-13)
(1.82312693685517e-12 4.23222656610036e-14 1.94730861029212e-13)
(2.00946189845697e-12 -1.36530233001943e-14 -2.37900061406832e-13)
(1.46841713924779e-12 -6.70158436508144e-14 4.95137247578279e-14)
(1.39784126053302e-12 1.98569368809163e-14 -6.59093090196251e-14)
(1.43316564415361e-12 1.10794970559766e-13 -3.33490132658291e-13)
(9.43502757431659e-13 6.9544329750965e-14 3.14415061590639e-13)
(1.00407053150586e-12 3.41883539917381e-14 7.26043183031777e-13)
(7.343700430319e-13 -9.12344177945725e-14 4.65889111395236e-14)
(-9.71436845279835e-10 -6.06200388422063e-14 -2.20602159254511e-10)
(-2.72448136423757e-10 -5.39269698097269e-14 -1.98625392566853e-10)
(-7.74658774146306e-12 -2.21194128615504e-14 -1.16081181412878e-11)
(1.80364594022755e-12 8.23579504127445e-14 -2.3502190370549e-13)
(1.6387812989665e-12 3.88559380090635e-14 1.42497867901115e-13)
(1.541166674861e-12 3.41728652311618e-14 1.20672259354678e-13)
(1.52085284605156e-12 7.75338162785958e-14 -1.20962813841434e-14)
(1.73504154371575e-12 4.19281975611933e-14 2.21081186546853e-14)
(1.637932168459e-12 -6.16410495885472e-14 -1.09901859319099e-13)
(1.44525729992998e-12 -3.79506569330457e-14 1.18973566292228e-13)
(1.36828139495488e-12 -2.06528655918516e-14 -8.94975749282149e-14)
(1.30258016514978e-12 8.62583737319136e-14 -1.51019929553868e-13)
(1.09519224562621e-12 -5.51226815518814e-14 4.06763956986961e-13)
(1.35185010819682e-12 -7.76625461043717e-14 6.8074179825974e-13)
(1.11670378202849e-12 -1.70536438409994e-13 8.72966066561706e-14)
(-7.95925173872421e-09 -1.23270173032741e-16 -4.55742378975493e-09)
(-7.79469481448014e-10 -3.94615571530703e-14 -1.07289031971404e-09)
(-5.28554289435112e-12 6.98879986646433e-14 -2.28734720020194e-11)
(1.92614584845535e-12 9.34833276823531e-14 -3.45802897639637e-13)
(1.95793770447978e-12 2.65415619640403e-14 1.06172329252532e-13)
(1.79038857759726e-12 2.20256414992886e-14 1.44105930516628e-13)
(1.6138466026952e-12 4.82673020981429e-14 8.55712412407262e-14)
(1.78528220114603e-12 2.34891999875527e-14 8.4132357999473e-14)
(1.81347972917501e-12 -5.02005218804327e-14 -1.30252596495044e-13)
(1.72574233874644e-12 -5.6780238582345e-14 1.24034452092218e-13)
(1.65382854996082e-12 1.05549194128389e-15 -4.40223297925198e-14)
(1.28660758661993e-12 1.28760430057013e-13 -1.98622261535462e-13)
(1.35396624187791e-12 -3.72235817087541e-14 3.57782075777e-13)
(1.77268633166039e-12 -9.61197582094311e-14 8.35669203299313e-13)
(1.67744517817921e-12 -1.6645444634062e-13 3.91886707440672e-13)
(-5.85445194002022e-13 7.90551752151773e-13 1.13454568602053e-13)
(-3.80229610735823e-13 8.1345251587854e-13 -9.91248690219468e-13)
(2.15635917052572e-13 -3.02269763330216e-13 -7.53597676345065e-13)
(6.55758976219876e-13 -8.95523387131695e-13 2.7270421791384e-14)
(4.11307465776175e-13 -7.4670335553822e-13 2.9452624443417e-13)
(4.56019899319886e-13 -5.52334652870895e-13 -1.25928447538869e-13)
(6.69604837044528e-13 -1.1642892204288e-12 -2.88562725680851e-13)
(7.25864780818641e-13 -1.07291547542876e-12 2.04142012543761e-13)
(7.11858768303638e-13 -9.61229995062704e-13 7.8299298129794e-14)
(5.3404489926211e-13 -9.01943745173153e-13 1.6298078363916e-13)
(2.36159808996717e-13 -3.03658236971932e-13 -8.39673237811956e-14)
(5.82932047186188e-13 -1.05508385392501e-12 -2.30072542460546e-13)
(3.81547102711552e-13 -7.81187707881362e-13 5.50653819911079e-13)
(1.39056304312639e-13 -2.58184911168435e-13 7.0361303300569e-13)
(6.7699483606887e-15 1.67835610333751e-15 -3.0495712950537e-15)
(-2.38312471675117e-11 4.13566915322818e-11 -3.39507955045538e-12)
(-1.21935005396744e-11 2.14551237304643e-11 -1.15394930836322e-11)
(-5.94767317091619e-13 1.38394490074158e-12 -2.84405518561503e-12)
(8.23085712766326e-13 -1.10396584460583e-12 1.43954447110168e-14)
(6.60359587834374e-13 -1.02588747497548e-12 1.93388371721463e-13)
(7.73201489721789e-13 -1.00514627134672e-12 -1.39179519368852e-13)
(7.01023414157625e-13 -8.69782401153125e-13 -2.00315625189301e-13)
(8.89912162967291e-13 -1.03905077333745e-12 4.72962033397455e-14)
(9.09797728435495e-13 -1.0728277370528e-12 1.15265505346986e-13)
(7.21839267575527e-13 -9.94828724137525e-13 3.4374195656713e-13)
(5.39196533953274e-13 -7.69312027527666e-13 -1.33885135314378e-13)
(5.92554901419439e-13 -9.63272883318087e-13 -1.80452089480922e-13)
(4.09424887163213e-13 -7.0595461720726e-13 5.65756177516074e-13)
(4.71702946312038e-13 -8.73208602708947e-13 7.45100973098635e-13)
(2.47778201562407e-13 -5.14438824324125e-13 7.6906194691464e-14)
(-4.86845623980679e-10 8.43816218182425e-10 -2.20263675088034e-10)
(-1.36502793388977e-10 2.36987100850596e-10 -1.98868820186783e-10)
(-3.67338095417771e-12 6.89116621991488e-12 -1.25082696137672e-11)
(7.35881964778098e-13 -7.07295837349929e-13 5.95167842823146e-14)
(7.89640981394907e-13 -9.09316016268922e-13 2.35223402109104e-13)
(6.91695258070921e-13 -6.78935075584543e-13 -1.45743511464741e-14)
(4.69726368732775e-13 -2.36850751421258e-13 -2.38585620501412e-13)
(6.97107237765251e-13 -3.9894335984518e-13 1.68715728352106e-14)
(6.99635808890368e-13 -5.44389615279555e-13 1.05547501962203e-13)
(6.34180527064848e-13 -6.95064383956969e-13 2.89743510290949e-13)
(6.16440265924601e-13 -9.00402003362183e-13 -3.52777056925518e-14)
(4.44710155376376e-13 -5.67078807218906e-13 -7.09175923247546e-14)
(4.55410972466016e-13 -5.93567179479626e-13 4.62983303266437e-13)
(5.80942279354346e-13 -8.78038827122262e-13 5.89828200836939e-13)
(6.0660188165184e-13 -9.20893108711868e-13 2.3390094401219e-13)
(-3.97854745694622e-09 6.89118632650992e-09 -4.55767759352749e-09)
(-3.89619579884387e-10 6.75219860704388e-10 -1.07352952043662e-09)
(-2.6695097340106e-12 5.0585353709264e-12 -2.34760040384046e-11)
(7.74651934857671e-13 -2.70491097556013e-13 -5.06060647990863e-14)
(9.37859567807498e-13 -9.57050026100221e-13 1.61743587788293e-13)
(7.15409611664293e-13 -7.25210238218609e-13 1.02676692491537e-13)
(4.98613569673855e-13 -4.80221243425446e-13 -1.29593125375433e-13)
(6.61244467601227e-13 -2.20323990825722e-13 -9.26744850652449e-14)
(8.49293237962325e-13 -5.43371596564861e-13 4.36599349999267e-14)
(7.32721433587469e-13 -6.42252145493629e-13 2.06611349985625e-13)
(7.77097748305464e-13 -8.94731224509207e-13 1.40440636040319e-14)
(4.47085323147708e-13 -6.16706984223699e-13 -1.06995788806091e-15)
(6.18629292417967e-13 -9.03698114797206e-13 4.09506653534977e-13)
(7.58174088916053e-13 -9.98305882173474e-13 5.94501563455276e-13)
(9.78997779377441e-13 -1.0334361355999e-12 5.57104004168489e-13)
(7.05907473911647e-13 8.26727103327704e-13 1.25464909966036e-16)
(4.40893458191502e-13 6.62108104001023e-13 -9.20140399811135e-13)
(-2.27269587520944e-13 -5.76884989021592e-13 -4.07043802991595e-13)
(-6.28026916291637e-13 -9.14449769081786e-13 1.81432474917738e-13)
(-4.52512558907781e-13 -7.83104623086134e-13 7.69808610254964e-14)
(-4.97454209615976e-13 -8.27921168106242e-13 -1.4374362801311e-13)
(-5.53847657155484e-13 -9.67792099296872e-13 1.20732410417157e-13)
(-7.15475339310397e-13 -1.01065488880135e-12 -1.49715764590896e-14)
(-7.19406081476468e-13 -1.26532631605686e-12 -1.09968311528837e-13)
(-6.50234319628709e-13 -1.17877483229539e-12 3.79022411033421e-13)
(-2.30368446419119e-13 -2.98252140350988e-13 8.98212605945519e-14)
(-4.3384588077517e-13 -7.51001489338632e-13 -2.06811959510232e-13)
(-3.75531174492313e-13 -7.87545153464399e-13 4.82394762835285e-13)
(-6.01472167522394e-14 -1.48603972919433e-13 6.99002465874552e-13)
(-3.22378347965858e-15 3.26704468525792e-14 -3.46580163758494e-14)
(2.42244617112936e-11 4.19359636885758e-11 -3.41003285523706e-12)
(1.28468725699827e-11 2.2463063145779e-11 -1.1523111096854e-11)
(8.85326114755152e-13 1.71101944790783e-12 -2.51995853452597e-12)
(-7.68311223997984e-13 -1.09812265648152e-12 -1.03710225630149e-14)
(-6.75447063551628e-13 -1.17686030866126e-12 9.69389710566815e-14)
(-5.68093524182273e-13 -8.99693604997064e-13 8.64812593907874e-14)
(-6.5933077392724e-13 -7.68827202616657e-13 -2.88085042579411e-14)
(-9.21567342854591e-13 -1.15715329966795e-12 -1.03135755782154e-13)