/*--------------------------------*- C++ -*----------------------------------*\
  =========                 |
  \\      /  F ield         | OpenFOAM: The Open Source CFD Toolbox
   \\    /   O peration     | Website:  https://openfoam.org
    \\  /    A nd           | Version:  11
     \\/     M anipulation  |
\*---------------------------------------------------------------------------*/
FoamFile
{
    format      ascii;
    class       volScalarField;
    location    "0.0000300147";
    object      Ma;
}
// * * * * * * * * * * * * * * * * * * * * * * * * * * * * * * * * * * * * * //

dimensions      [0 0 0 0 0 0 0];

internalField   nonuniform List<scalar> 
900
(
0.609400369268433
0.625691842369235
0.649405993983576
0.603014654019858
0.622570167674238
0.647959008941607
0.588919726368001
0.61364712941911
0.642183173102504
0.609400372816003
0.625691846250277
0.649405997464889
0.603014659691615
0.622570173805957
0.647959014209484
0.588919727736891
0.613647130916572
0.642183174757696
0.609400369270688
0.6256918423671
0.649405993991733
0.603014654020476
0.622570167671947
0.647959008945824
0.588919726364633
0.613647129413904
0.642183173109219
0.609400369320602
0.625691842376366
0.649405993781478
0.603014654051003
0.622570167660116
0.647959008731618
0.588919726356761
0.613647129377915
0.642183173085702
0.609400372688258
0.625691845784103
0.649405996722923
0.603014659589732
0.622570173392723
0.647959013670829
0.588919727702838
0.613647130698937
0.642183174501013
0.609400369333191
0.625691842390329
0.649405993780089
0.603014654063062
0.622570167667647
0.647959008720483
0.588919726362554
0.61364712938765
0.642183173076233
0.667643232692891
0.69621084369477
0.739150803562211
0.66721831441557
0.696229684695787
0.739333381414762
0.6642853204583
0.695752259718998
0.739678465596415
0.667643234383568
0.696210837408239
0.739150791816181
0.667218316177229
0.696229679847694
0.739333384434354
0.664285320723445
0.695752259887031
0.739678480213638
0.667643232765299
0.696210843966575
0.739150803639087
0.667218314457157
0.696229684876529
0.739333381327667
0.664285320465101
0.695752259680986
0.739678465438052
0.667643231660412
0.696210841035724
0.7391508028477
0.667218313782309
0.696229684033444
0.739333387240012
0.664285320684942
0.695752262969678
0.739678473693767
0.6676432363193
0.696210845626163
0.739150798370485
0.667218317957965
0.696229684118059
0.739333383825529
0.664285321839859
0.695752262389355
0.739678478549458
0.667643231628614
0.696210841093106
0.739150803033957
0.667218313747792
0.696229684085531
0.7393333874746
0.664285320677494
0.695752263044257
0.739678473898948
0.812872748203913
0.813137229295689
0.813629872516113
0.812872769796372
0.81313728528266
0.813629940863762
0.812872746462118
0.813137225884331
0.813629873202208
0.812872763205644
0.813137221306107
0.813629898574553
0.812872783753246
0.813137284945092
0.813629860237023
0.812872762897991
0.813137217278207
0.813629895842191
0.826045818066741
0.826265280313885
0.826646922543804
0.826045805657439
0.826265190986587
0.826646809138074
0.826045819821772
0.826265287363805
0.826646930977842
0.826045926181473
0.826265326282524
0.826646786728604
0.826045765471832
0.826265161514035
0.826646863253273
0.826045933232618
0.826265331938658
0.826646779910015
0.808901928881939
0.809107835079385
0.809438019756392
0.808901870445349
0.809107530933988
0.809437143361915
0.808901946751387
0.809107857133857
0.809438007601362
0.80890236914322
0.809107977904675
0.809436880179323
0.808901518352099
0.80910747536424
0.809438389864662
0.808902393406861
0.809108002689905
0.809436851360055
0.772175848375137
0.772265184888358
0.772407989328182
0.772175856277488
0.772265185904587
0.772408270798852
0.772175847296375
0.77226519016122
0.772407993962669
0.772175859872716
0.772265270212097
0.772408313765406
0.772175854099493
0.772265050715883
0.772407793901881
0.772175860511379
0.772265272800726
0.772408312174112
0.722461894344237
0.722475277776866
0.722493144769571
0.722461928513142
0.722475362303862
0.722493274824365
0.722461891832546
0.722475272284548
0.722493139605726
0.722461869502994
0.72247523279622
0.722493186222629
0.722461946822556
0.722475387138618
0.722493206689508
0.722461867307585
0.722475226983896
0.722493181582194
0.633364443065571
0.63336506130978
0.633357349983076
0.633364432918299
0.63336506423597
0.633357352845141
0.633364443656778
0.633365060950457
0.633357349580582
0.633364441172221
0.633365047637519
0.633357347460945
0.633364431462753
0.633365076625335
0.633357359214216
0.633364441562383
0.633365047294012
0.633357347342685
0.444400775827982
0.444405992879985
0.44439778117974
0.444400769505588
0.444405979876154
0.444397770667729
0.444400776284404
0.444405993731067
0.444397781511591
0.444400778851443
0.444405998322728
0.444397779345836
0.444400766389568
0.444405976766482
0.44439777692992
0.444400779131237
0.444405999139902
0.444397779743312
0.16235051874942
0.162306541307295
0.162271227414615
0.162350524407413
0.162306539132957
0.162271221191297
0.162350518477481
0.162306541492196
0.162271227783188
0.16235051865237
0.162306544837143
0.162271229165341
0.162350526576422
0.162306538117606
0.162271221455922
0.162350518409806
0.162306545005256
0.162271229509605
0.56582901431834
0.545465219999412
0.526568677669707
0.565829024368858
0.545465224265052
0.526568678506735
0.565829014322326
0.545465219999542
0.526568677667299
0.565829014331625
0.545465220005177
0.526568677668625
0.565829024367475
0.545465224266061
0.526568678514154
0.565829014342833
0.545465220013887
0.526568677672513
4.40170078152008e-09
3.24724197311473e-09
4.95922893403841e-10
2.69388481006853e-11
1.29020241818599e-12
1.01991975217396e-14
2.14311927329211e-15
1.89499758068236e-15
2.5159082077996e-15
2.06856022219447e-15
1.13435910484542e-15
1.58477912191838e-15
3.57028884044631e-15
4.16966883580976e-15
1.10990793591275e-15
4.55220400074639e-07
3.56815830014464e-07
2.83598569365492e-08
2.1235665637623e-10
4.90841600900595e-11
7.4620416429202e-13
3.71213046811592e-15
4.88309963017619e-15
3.45765145184736e-15
3.8830707041098e-15
3.47611860502308e-15
3.29529308396693e-15
3.51242623404253e-15
4.68104379729722e-15
2.53868537629414e-15
3.35530435812181e-05
1.09007343149421e-05
2.24887571888024e-07
1.25276687970626e-09
3.04571449311064e-10
5.92307218020695e-12
6.09793294586072e-15
4.5417840714083e-15
5.42465219902045e-15
6.00867024481516e-15
6.5892740336947e-15
5.31083356217834e-15
5.41980338866104e-15
7.44720248437954e-15
5.63658383167947e-15
0.00106158292960913
6.65062588727029e-05
3.07807991346427e-07
4.85087225235717e-09
8.35125617761351e-10
1.2075781687654e-11
9.21972529246691e-15
3.51608091152784e-15
3.62000171011186e-15
2.89355834040001e-15
2.96570490951446e-15
2.97566620224055e-15
3.44981493963438e-15
4.9945653988136e-15
5.3958962198132e-15
4.40169587904355e-09
3.24723774016349e-09
4.95918306863308e-10
2.69378641488214e-11
1.28973633659764e-12
9.14412974884459e-15
5.89368328542372e-16
3.85839275485735e-16
2.18696385809456e-16
6.19997656431036e-16
7.50104377775627e-16
1.59364436893049e-15
7.66977280911572e-16
2.17647518285375e-15
8.43852858398572e-16
4.55220364619976e-07
3.56815805686875e-07
2.83598606449952e-08
2.1234657995131e-10
4.90769110026164e-11
7.39719611764533e-13
1.17501959531956e-14
1.22715903800219e-14
1.20109552339751e-14
1.19866012303845e-14
1.13353390707619e-14
1.0982131534073e-14
8.74715679797451e-15
9.04329077087253e-15
8.0580238895345e-15
3.35530422213325e-05
1.09007340972852e-05
2.24887576553349e-07
1.25276274019744e-09
3.04568216629185e-10
5.91938130319617e-12
1.27534128855838e-14
1.37427437271697e-14
1.35862951871689e-14
1.37127137913942e-14
1.31761088079778e-14
1.3049565290565e-14
1.13177106180545e-14
1.1395190206388e-14
1.07018309344992e-14
0.00106158295570093
6.65062602642146e-05
3.07808002689471e-07
4.85086914629542e-09
8.35124790830302e-10
1.20743634464521e-11
1.11299816065312e-14
7.25222380065761e-15
7.77631679788758e-15
7.50178197987098e-15
7.04099261629823e-15
7.20074163373157e-15
6.36986680180971e-15
6.98575197657722e-15
5.92937447006921e-15
4.40169983812105e-09
3.24724082595532e-09
4.95923519585363e-10
2.69402460649967e-11
1.28867513937437e-12
7.7943834942643e-15
1.64826942129037e-15
1.29829106625401e-15
1.90442744612289e-15
1.72858836096935e-15
1.13046438211918e-15
1.14741877797533e-15
2.80219676480699e-15
4.03953596891786e-15
8.34396198802904e-16
4.55220398258732e-07
3.56815828216214e-07
2.83598563305759e-08
2.12357939406436e-10
4.90863895583636e-11
7.44242149346168e-13
4.38789095865172e-15
4.01456959836421e-15
3.74567261592861e-15
4.62439460084278e-15
4.61693638439807e-15
3.84348162800452e-15
3.87586239569048e-15
5.57842983341335e-15
4.80943601198294e-15
3.35530434902954e-05
1.09007342899924e-05
2.24887570082871e-07
1.25276728357809e-09
3.04573086300501e-10
5.92416027189675e-12
6.03207979222749e-15
6.01366153788499e-15
5.28983168815494e-15
6.35020268779605e-15
7.27444946423542e-15
5.74687952203446e-15
5.90832814866539e-15
6.50869754183712e-15
6.12164144677788e-15
0.00106158292672439
6.65062587444133e-05
3.07807990154289e-07
4.85087354486892e-09
8.35126179363644e-10
1.20761520678997e-11
8.43302891045863e-15
3.99785939485758e-15
4.53089031540743e-15
3.64893889561179e-15
3.2143253050676e-15
3.12096672789598e-15
3.78700780984851e-15
3.77228543652882e-15
3.21293455326401e-15
4.40170105739965e-09
3.24724248991058e-09
4.95923700457342e-10
2.69390106673632e-11
1.29009379551484e-12
8.26311232403561e-15
2.36228376826278e-15
2.28158694065407e-15
2.24831273502353e-15
2.47785562543216e-15
1.15027505564494e-15
1.42628438900098e-15
2.72658329925669e-15
4.69356681786436e-15
9.96125647148536e-16
4.55220365113771e-07
3.56815806681677e-07
2.8359854622779e-08
2.12358542337002e-10
4.90870203962657e-11
7.44477667489237e-13
3.71617208013288e-15
4.40090778393233e-15
3.57973968305021e-15
4.80155146508798e-15
4.76506193416507e-15
3.96961879814177e-15
3.26338017281927e-15
5.31825374637773e-15
3.76540557365349e-15
3.35530420313931e-05
1.090073389564e-05
2.24887562569331e-07
1.25276720337123e-09
3.04573572702165e-10
5.92368536799095e-12
5.72057603029135e-15
4.7211494846859e-15
5.7508029689114e-15
6.16780033411827e-15
7.47841091241681e-15
6.21600831569784e-15
5.75642016654449e-15
7.79546853727401e-15
6.41972060774973e-15
0.00106158290315418
6.65062569282382e-05
3.07807976263314e-07
4.85087239986196e-09
8.35126857191514e-10
1.20756666954096e-11
8.77644114905399e-15
3.37713813076426e-15
3.50625362292387e-15
3.10944367228651e-15
2.96552588377159e-15
3.21893510345476e-15
3.85664226921406e-15
5.23187335503439e-15
5.18384592518128e-15
4.40169576577039e-09
3.24723781455001e-09
4.9591788419272e-10
2.69379962750228e-11
1.28985747637075e-12
9.38203950993787e-15
8.67350984184762e-16
5.77639679403354e-16
3.53704176604445e-16
2.10723082930206e-16
3.68416523337336e-16
1.27257543144294e-15
7.49488821426524e-16
2.22056685094406e-15
9.24792675212791e-16
4.5522039218224e-07
3.56815824206939e-07
2.83598629153728e-08
2.12346676573153e-10
4.9077127662272e-11
7.39606316751686e-13
1.15988298408281e-14
1.23020708240058e-14
1.20683194421112e-14
1.19126897309105e-14
1.13868021213577e-14
1.12841908762428e-14
9.4123270058099e-15
9.96471556340173e-15
8.09067534275861e-15
3.35530437535908e-05
1.09007344830995e-05
2.24887583595934e-07
1.25276333802609e-09
3.04568897560469e-10
5.91949393867356e-12
1.29271651928351e-14
1.39146950004335e-14
1.36977250247021e-14
1.37329107068884e-14
1.31601157405716e-14
1.30778094567992e-14
1.17109042671698e-14
1.22361911755511e-14
1.08691505739725e-14
0.00106158299547706
6.65062624820939e-05
3.07808013346049e-07
4.85087006162514e-09
8.35125110549298e-10
1.20747096237627e-11
1.08225102102986e-14
7.38910804133705e-15
7.82207202080992e-15
7.66418157401047e-15
6.87769269476671e-15
6.92122630225225e-15
6.86968257343278e-15
7.35166228964052e-15
7.72196656632964e-15
4.40170051793217e-09
3.24724137908756e-09
4.95923529036e-10
2.69401821625099e-11
1.28855613537106e-12
8.1333395821234e-15
1.55798939955142e-15
1.36414295749032e-15
2.06522395982623e-15
1.88213585720065e-15
1.41537618207402e-15
1.75458177980393e-15
3.01291863122543e-15
4.00600218987923e-15
1.1277159854819e-15
4.55220364463364e-07
3.56815807525554e-07
2.83598548840463e-08
2.12357429842321e-10
4.90850997591073e-11
7.44696396657211e-13
4.17453375828305e-15
3.91295274655008e-15
3.90806941884009e-15
4.73161192725205e-15
4.58712387535034e-15
4.16422245659471e-15
3.6989528047164e-15
5.06647632379556e-15
4.29084765370453e-15
3.35530419903782e-05
1.09007338832158e-05
2.24887561696898e-07
1.25276725839561e-09
3.0457285166265e-10
5.92385057422423e-12
5.84024038881684e-15
6.01540015340472e-15
5.49579015908185e-15
6.22010033132408e-15
7.02287368260894e-15
5.20123743778212e-15
4.64076802551183e-15
6.59927783556774e-15
5.58208868954815e-15
0.0010615829015282
6.65062568689599e-05
3.07807975136762e-07
4.8508727502677e-09
8.35126012422771e-10
1.20756213625509e-11
8.94520158989721e-15
3.60879644786578e-15
3.96817398678627e-15
3.60546399269758e-15
3.2442787296824e-15
2.96178027788591e-15
3.08333678360431e-15
4.21535237941751e-15
3.84510887009037e-15
0.008534085403407
3.31259662795274e-05
6.44963187949793e-08
1.20696196170285e-08
1.14172349415634e-09
8.63742423658137e-12
3.67446533532767e-15
1.54009307783e-15
1.2963586719151e-15
1.67157169280247e-15
2.48537676558492e-15
2.45749261759823e-15
2.06805461310157e-15
2.46311614390377e-15
1.56617383441954e-15
0.00975953657655272
3.70454292442136e-05
4.6518148508334e-08
1.84917898569564e-08
1.5407680846075e-09
9.6419188342331e-12
3.37689076960071e-15
1.06495285705063e-15
5.6899248685638e-16
2.28560231243039e-15
3.4571723504064e-15
1.7978038204317e-15
1.93266062180002e-15
3.08697704672254e-15
1.94233995429359e-15
0.00984327891088034
3.87288846676285e-05
5.36365076320427e-08
2.17967248745696e-08
1.88629598799201e-09
1.19078300913993e-11
4.1574248232821e-15
6.15754305632159e-16
1.09605615745145e-15
2.55316816049746e-15
1.94644347913126e-15
1.71997154432736e-15
2.5030190051983e-15
3.58910521848143e-15
2.05897723696853e-15
0.00853408580663185
3.31259680935464e-05
6.44963228363937e-08
1.20696195077423e-08
1.14172326024197e-09
8.6368586951355e-12
4.27697779886907e-15
9.4883607765229e-16
1.72133597232345e-15
1.55507144079777e-15
7.68467205704381e-16
1.02831883242099e-15
1.78392166872046e-15
2.46530943426312e-15
1.06690592534247e-15
0.00975953700892916
3.70454317038969e-05
4.651814955685e-08
1.84917923727695e-08
1.54076812013082e-09
9.64163777147019e-12
2.97349253640644e-15
1.65806693756905e-15
5.36189440305201e-16
1.25588269695591e-15
1.57725261333647e-15
9.10329949666912e-16
2.04309443898564e-15
2.8058938322547e-15
2.04907242712881e-15
0.00984327884640115
3.8728886336606e-05
5.36365251069558e-08
2.17967289173303e-08
1.88629625077944e-09
1.19078341329741e-11
4.06059746745076e-15
1.68200062113878e-15
4.94271809485285e-16
1.16900877498234e-15
1.63619436910254e-15
1.375024951657e-15
2.33778052619058e-15
2.76658878894109e-15
1.28706903339564e-15
0.00853408538232871
3.31259661899751e-05
6.44963163337084e-08
1.20696198499467e-08
1.14172386374164e-09
8.63761940793686e-12
3.31951122530807e-15
1.56090048013818e-15
1.44533112534313e-15
1.6509989134626e-15
2.54300428294937e-15
1.89726677203473e-15
2.10139454102656e-15
2.67339136616245e-15
9.78809857834115e-16
0.00975953655112261
3.70454291041601e-05
4.65181462955213e-08
1.84917895799468e-08
1.54076858296605e-09
9.64234123891669e-12
3.40225866474144e-15
1.72650495688487e-15
1.2004082123281e-15
1.72589733002285e-15
1.98685299118836e-15
1.52993262843783e-15
2.60599086391839e-15
2.30226236950501e-15
9.31233402884484e-16
0.00984327891525003
3.87288845215358e-05
5.36365073429487e-08
2.17967247813985e-08
1.88629648102975e-09
1.19080859775499e-11
4.34747608457488e-15
1.29233388910504e-15
1.45900441210208e-15
1.69147753604053e-15
8.52866200901755e-16
1.84432343987339e-15
2.79441241326296e-15
2.51325152269223e-15
9.87307284213859e-16
0.00853408535059009
3.31259652124799e-05
6.44963182194896e-08
1.20696192557491e-08
1.1417246327072e-09
8.63697799663941e-12
3.91273133059789e-15
1.3994392919858e-15
1.42190339125507e-15
1.85505942263298e-15
3.03650178507669e-15
2.23190968412542e-15
2.21115254702426e-15
3.03256691278575e-15
1.84157358312995e-15
0.00975953662253337
3.70454284544484e-05
4.65181538448833e-08
1.8491790626409e-08
1.54076889862753e-09
9.64190587438364e-12
3.77963060473071e-15
1.60488613475626e-15
1.46623206897845e-15
2.57312985132458e-15
2.67208545439593e-15
1.41716908637144e-15
2.06081117210117e-15
2.74030692740788e-15
2.54127117568525e-15
0.00984327905727496
3.87288847627865e-05
5.36365082646926e-08
2.17967253387339e-08
1.88629646152527e-09
1.19080493879125e-11
4.33258640241677e-15
1.11725693927248e-15
1.65150288973888e-15
2.4578826056832e-15
9.4799184197474e-16
1.45795825382752e-15
2.49156427536289e-15
2.61351328675919e-15
1.57642591966446e-15
0.00853408599502859
3.31259694780002e-05
6.44963221437179e-08
1.20696200193999e-08
1.14172406592893e-09
8.63696981617505e-12
3.67371227611216e-15
6.2460592589861e-16
1.53089744285961e-15
1.70282849852932e-15
5.92865545376409e-16
9.24045304911881e-16
1.94130129452654e-15
2.67408881354122e-15
2.27404830753518e-15
0.00975953720231054
3.70454332380238e-05
4.65181478449855e-08
1.84917916767613e-08
1.54076862765868e-09
9.64159206543759e-12
2.94792268646281e-15
1.38869077507367e-15
9.24004438067458e-16
1.34527732116787e-15
8.96149956285959e-16
9.19604201776219e-16
1.94757299594645e-15
2.8411362559277e-15
2.99153713563006e-15
0.00984327888919229
3.87288873114889e-05
5.36365224428115e-08
2.17967270934052e-08
1.88629658829266e-09
1.19076879500377e-11
3.89921563799606e-15
1.76574338107055e-15
8.71406094162408e-16
1.1492136448058e-15
1.57437944617825e-15
1.10403984686049e-15
1.99150428219971e-15
2.85647692974626e-15
2.18494590022069e-15
0.00853408533565437
3.31259651671014e-05
6.44963166159924e-08
1.2069619464152e-08
1.14172366252085e-09
8.63706227219106e-12
3.64705328574584e-15
1.59824098553419e-15
1.6503994246371e-15
1.75796888270472e-15
2.2563109383142e-15
1.46983222818914e-15
2.09151426779854e-15
2.90539271964865e-15
1.91965150923499e-15
0.00975953660277741
3.70454283671796e-05
4.65181509590426e-08
1.84917908546057e-08
1.54076848480984e-09
9.64199159706273e-12
3.25409050130082e-15
1.16146086422449e-15
1.11278644924999e-15
1.60662509970624e-15
2.45961538217974e-15
1.76444521746535e-15
1.9782168742403e-15
3.17504013104478e-15
2.30270707178674e-15
0.00984327905690003
3.87288846869416e-05
5.36365073827543e-08
2.17967251598041e-08
1.88629633662627e-09
1.19080045225289e-11
4.05388337316055e-15
1.07204061950301e-15
1.11757467675789e-15
1.60839941193201e-15
1.71451509683854e-15
2.06614436940305e-15
2.19981754632037e-15
3.66674324920557e-15
1.76933429067383e-15
)
;

boundaryField
{
    inlet
    {
        type            calculated;
        value           nonuniform List<scalar> 
24
(
0.5594830004566
0.559483010478788
0.559483000460542
0.559483000468384
0.559483010479021
0.559483000479417
0.5594830004566
0.537926434405328
0.518851267184255
0.559483010478788
0.53792643906671
0.518851267991212
0.559483000460542
0.537926434405933
0.518851267181526
0.559483000468384
0.537926434411505
0.51885126718305
0.559483010479021
0.537926439067863
0.518851267999709
0.559483000479417
0.537926434421229
0.518851267188064
)
;
    }
    outlet
    {
        type            calculated;
        value           nonuniform List<scalar> 
156
(
3.74729094799451e-11
1.23690777212665e-09
1.72243694451333e-10
4.2512608846343e-12
8.35519898595924e-14
1.33422796525253e-15
2.05257881603071e-15
1.65976876419734e-15
2.35633233984623e-15
1.95093785930141e-15
8.70546095972184e-16
1.46675129034933e-15
2.35311904339351e-15
1.8887789524218e-15
3.08700348219671e-16
3.74728301183727e-11
1.23690726222158e-09
1.72241920798283e-10
4.24963430858824e-12
8.31308263217704e-14
5.33097137957677e-16
3.81470020745498e-16
2.53341905344948e-16
1.47412547951977e-16
4.03610248536858e-16
4.36716960444646e-16
8.9534306189772e-16
3.96605743501946e-16
9.81079596193747e-16
3.42867027853769e-16
3.74728181862393e-11
1.23690749298567e-09
1.72243846776268e-10
4.25196825243708e-12
8.31688351594866e-14
9.64698590615117e-16
1.40633546607546e-15
1.05022018510171e-15
1.68968516700205e-15
1.13736615150293e-15
4.5518344314821e-16
6.94093169069893e-16
1.39262444086042e-15
1.93948668924422e-15
2.96630720739336e-16
3.74728731796963e-11
1.23690784909445e-09
1.72244026467873e-10
4.25126073223358e-12
8.3546731191202e-14
1.51582369897245e-15
2.25758107935891e-15
2.15336580077304e-15
2.13531632708905e-15
1.82052554469988e-15
5.05131993365408e-16
8.23580925063072e-16
1.70906615316899e-15
2.13999158879754e-15
3.20643591704707e-16
3.7472815943392e-11
1.23690747612068e-09
1.72241933301173e-10
4.2496765569743e-12
8.31850627958152e-14
5.10180951194815e-16
5.30035739849039e-16
3.760168873069e-16
2.3602883912392e-16
1.2917834330365e-16
2.11213324217544e-16
7.19521958456191e-16
3.99511551855455e-16
1.03166858682784e-15
4.02557767659117e-16
3.74728695601595e-11
1.23690775716593e-09
1.72243892650709e-10
4.2519814340682e-12
8.31806002458498e-14
8.64732933448846e-16
1.35066403479015e-15
1.25866389145371e-15
1.87628107246383e-15
1.33752147622483e-15
6.83895385633915e-16
1.26577472619553e-15
2.30712666436319e-15
1.89290771981057e-15
4.27374584639411e-16
3.77014238044416e-16
1.17458657407945e-15
2.94452944981598e-15
3.57907041092391e-15
1.42393517375005e-15
1.5879330776551e-15
1.41470618718673e-15
4.25380625357072e-17
3.52617301268326e-15
5.21248909020624e-15
3.3809557274606e-15
9.2235926715504e-16
1.389309607374e-15
9.71768016423129e-16
2.40755054209109e-16
2.31354069543104e-15
3.35345142645844e-15
2.48835792472864e-15
9.52734650930404e-16
8.13083808617331e-16
8.19769679038089e-16
3.50075497073205e-16
1.79303610229699e-15
3.35670156335266e-15
3.42847333051696e-15
1.44695050767381e-15
1.72687699882525e-15
1.18963191538747e-15
4.91390907867866e-17
3.44066029289498e-15
5.39978015649794e-15
4.54255290674006e-15
1.68750509104059e-15
1.95169406329165e-15
1.47132990318727e-15
4.75938914097969e-16
2.06476657748875e-15
3.11947674800757e-15
2.92422608173393e-15
1.63314019823926e-15
1.78772921097718e-15
1.35583325332179e-15
1.79644920338838e-09
1.90575666884894e-07
1.0578440853609e-05
0.000199677238086291
1.79644740383973e-09
1.90575654249636e-07
1.05784404069757e-05
0.000199677246033702
1.79644926378143e-09
1.90575666662729e-07
1.057844081473e-05
0.000199677237258906
1.79644952273734e-09
1.90575650937574e-07
1.05784402902697e-05
0.000199677231414585
1.79644742828143e-09
1.90575667378601e-07
1.05784410274968e-05
0.000199677258619261
1.7964492973611e-09
1.90575651101761e-07
1.05784402726397e-05
0.000199677230960514
)
;
    }
    sides
    {
        type            calculated;
        value           nonuniform List<scalar> 
84
(
0.609400369268433
0.625691842369235
0.649405993983576
0.609400372816003
0.625691846250277
0.649405997464889
0.609400369270688
0.6256918423671
0.649405993991733
0.609400369320602
0.625691842376366
0.649405993781478
0.609400372688258
0.625691845784103
0.649405996722923
0.609400369333191
0.625691842390329
0.649405993780089
0.667643232692891
0.69621084369477
0.739150803562211
0.667643234383568
0.696210837408239
0.739150791816181
0.667643232765299
0.696210843966575
0.739150803639087
0.667643231660412
0.696210841035724
0.7391508028477
0.6676432363193
0.696210845626163
0.739150798370485
0.667643231628614
0.696210841093106
0.739150803033957
0.812872748203913
0.812872769796372
0.812872746462118
0.812872763205644
0.812872783753246
0.812872762897991
0.826045818066741
0.826045805657439
0.826045819821772
0.826045926181473
0.826045765471832
0.826045933232618
0.808901928881939
0.808901870445349
0.808901946751387
0.80890236914322
0.808901518352099
0.808902393406861
0.772175848375137
0.772175856277488
0.772175847296375
0.772175859872716
0.772175854099493
0.772175860511379
0.722461894344237
0.722461928513142
0.722461891832546
0.722461869502994
0.722461946822556
0.722461867307585
0.633364443065571
0.633364432918299
0.633364443656778
0.633364441172221
0.633364431462753
0.633364441562383
0.444400775827982
0.444400769505588
0.444400776284404
0.444400778851443
0.444400766389568
0.444400779131237
0.16235051874942
0.162350524407413
0.162350518477481
0.16235051865237
0.162350526576422
0.162350518409806
)
;
    }
}


// ************************************************************************* //
