/*--------------------------------*- C++ -*----------------------------------*\
  =========                 |
  \\      /  F ield         | OpenFOAM: The Open Source CFD Toolbox
   \\    /   O peration     | Website:  https://openfoam.org
    \\  /    A nd           | Version:  11
     \\/     M anipulation  |
\*---------------------------------------------------------------------------*/
FoamFile
{
    format      ascii;
    class       volScalarField;
    location    "0.0000300147";
    object      p;
}
// * * * * * * * * * * * * * * * * * * * * * * * * * * * * * * * * * * * * * //

dimensions      [1 -1 -2 0 0 0 0];

internalField   nonuniform List<scalar> 
900
(
486570.123803023
473561.353049437
457799.499948391
487771.226123519
474843.535134466
458964.270365025
488791.046045637
475933.936917991
459902.959808299
486570.123947572
473561.352618642
457799.499415383
487771.22767248
474843.536210429
458964.270580977
488791.045035417
475933.935870299
459902.959152063
486570.123801558
473561.353051568
457799.499949496
487771.226122903
474843.535137601
458964.270364132
488791.046045282
475933.936917378
459902.959802563
486570.123776611
473561.353052018
457799.500123438
487771.226114867
474843.535147703
458964.2704524
488791.046048591
475933.936966466
459902.959885418
486570.124027584
473561.352907236
457799.499821321
487771.227720014
474843.536464915
458964.27092271
488791.045054666
475933.935955898
459902.959263436
486570.123774734
473561.353046754
457799.500124058
487771.22611277
474843.535140244
458964.270455687
488791.046049647
475933.93696866
459902.959891774
445226.318031901
430628.758635429
419297.099299606
446159.335909223
431231.106064597
419685.808688999
446764.349183214
431547.754411517
419914.746618583
445226.317905886
430628.762463929
419297.10411905
446159.33646164
431231.110809886
419685.813791238
446764.349004836
431547.754670424
419914.741606122
445226.317992132
430628.758510457
419297.099369848
446159.335878976
431231.105931932
419685.808892906
446764.349178185
431547.754376599
419914.746607853
445226.318629397
430628.759163849
419297.098220356
446159.336157491
431231.107113454
419685.809682554
446764.348956869
431547.754430085
419914.745988363
445226.31694657
430628.757383406
419297.101971352
446159.335586398
431231.106331102
419685.813178604
446764.348462652
431547.753613131
419914.745378187
445226.318653605
430628.759155859
419297.098332209
446159.336175689
431231.107128901
419685.809971963
446764.348961744
431547.754473159
419914.746106233
412536.071013471
412717.904387352
412827.427109629
412536.067987235
412717.902539775
412827.405850701
412536.072076922
412717.904943967
412827.426246243
412536.065674942
412717.898803389
412827.411068972
412536.059163885
412717.903221779
412827.439822899
412536.065706299
412717.899377973
412827.411671997
376227.610804787
376301.224424888
376319.433173777
376227.614233399
376301.249651999
376319.470349295
376227.609193564
376301.222280248
376319.430491197
376227.566876864
376301.202565602
376319.473496642
376227.636607157
376301.246790205
376319.433457233
376227.564367058
376301.199318604
376319.474466267
352840.800221684
352876.768638384
352877.041668144
352840.823191264
352877.012886317
352878.993562767
352840.791172836
352876.763063222
352877.096472104
352840.630551635
352876.894663327
352880.048210059
352840.947491965
352876.729437469
352875.757057596
352840.620803561
352876.882180293
352880.097955256
330095.376548314
330111.103438919
330109.589283083
330095.431022631
330111.32702824
330109.803406254
330095.371877926
330111.089922558
330109.597857438
330095.341126772
330111.059560715
330109.958452859
330095.458594861
330111.319609918
330109.347448745
330095.336977775
330111.044506706
330109.964850125
309720.004407571
309727.324959257
309727.878040431
309720.024409672
309727.401901076
309727.875344348
309720.002863883
309727.319543671
309727.879115186
309719.985227392
309727.275567436
309727.899547414
309720.040290177
309727.439530456
309727.837716871
309719.983885906
309727.270067887
309727.900355862
265209.048433867
265209.762462298
265212.265620558
265209.042130788
265209.761997338
265212.263741469
265209.04886513
265209.762413935
265212.264960616
265209.048544387
265209.757908036
265212.254632946
265209.040959691
265209.766955192
265212.277907656
265209.04889654
265209.757884326
265212.254121872
193722.363037891
193721.723302347
193722.356487603
193722.361477712
193721.718843926
193722.351656064
193722.363162
193721.723614818
193722.356668943
193722.36406315
193721.725445225
193722.355610135
193722.36054766
193721.717601385
193722.354166464
193722.364135071
193721.725751991
193722.355822145
129231.749219478
129222.429505939
129225.194080796
129231.749587139
129222.428697596
129225.193026907
129231.749201385
129222.429560123
129225.194150102
129231.749600572
129222.430397242
129225.194656499
129231.749543549
129222.428272073
129225.193021338
129231.74958453
129222.430446063
129225.194682666
515847.294551206
521860.952651529
522384.338732002
515847.292342659
521860.954704838
522384.338188581
515847.294550357
521860.952652759
522384.338731263
515847.294548895
521860.95265184
522384.338731299
515847.292340645
521860.954707272
522384.338189284
515847.294547845
521860.952652431
522384.338732091
101324.997895653
101324.999560126
101324.999924482
101324.999995147
101324.999999809
101324.999999999
101325
101324.999999999
101325
101325
101325
101325
101325
101324.999999999
101324.999999999
101325.063121758
101325.047720336
101325.003305838
101324.999972784
101324.999993744
101324.999999903
101325
101325
101325
101325
101325
101325
101325
101325
101325
101329.312147261
101326.281707957
101325.026149646
101324.999852562
101324.999963776
101324.999999242
101324.999999999
101325
101325
101325
101325
101325
101325
101324.999999999
101324.999999999
101438.180995528
101332.793308963
101325.041012852
101324.999455321
101324.999900301
101324.999998353
101324.999999999
101325
101325
101325
101325
101325
101325
101325
101325
101324.997895655
101324.999560127
101324.999924482
101324.999995147
101324.999999808
101324.999999997
101324.999999998
101324.999999998
101324.999999998
101324.999999998
101324.999999998
101324.999999998
101324.999999998
101324.999999998
101324.999999998
101325.063121752
101325.047720333
101325.003305838
101324.999972785
101324.999993744
101324.999999902
101324.999999999
101324.999999999
101324.999999999
101324.999999999
101324.999999999
101324.999999999
101324.999999999
101324.999999999
101324.999999999
101329.312147055
101326.281707924
101325.026149646
101324.999852561
101324.999963775
101324.999999241
101324.999999999
101325
101325
101325
101325
101325
101325
101324.999999999
101325
101438.180999188
101332.793309119
101325.041012853
101324.999455321
101324.999900301
101324.999998352
101324.999999998
101325
101325
101325
101325
101325
101325
101325
101325
101324.997895654
101324.999560126
101324.999924482
101324.999995147
101324.999999809
101324.999999999
101325
101325
101325
101325
101324.999999999
101325
101325
101324.999999999
101324.999999999
101325.063121758
101325.047720336
101325.003305838
101324.999972784
101324.999993744
101324.999999903
101325
101325
101325
101325
101325
101325
101325
101325
101325
101329.312147247
101326.281707954
101325.026149646
101324.999852562
101324.999963776
101324.999999242
101324.999999999
101325
101325
101325
101325
101325
101325
101325
101325
101438.180995111
101332.793308947
101325.041012852
101324.999455321
101324.999900301
101324.999998352
101324.999999999
101325
101325
101325
101325
101325
101325
101325
101325
101324.997895653
101324.999560126
101324.999924482
101324.999995148
101324.999999809
101324.999999999
101325
101325
101325
101325
101324.999999999
101325
101325
101324.999999999
101324.999999999
101325.063121752
101325.047720333
101325.003305838
101324.999972784
101324.999993744
101324.999999903
101325
101325
101325
101325
101325
101325
101325
101325
101325
101329.312147015
101326.281707897
101325.026149645
101324.999852562
101324.999963776
101324.999999242
101324.999999999
101325
101325
101325
101325
101325
101325
101324.999999999
101324.999999999
101438.180991207
101332.79330864
101325.041012851
101324.999455322
101324.999900301
101324.999998353
101324.999999999
101325
101325
101325
101325
101325
101325
101325
101325
101324.997895655
101324.999560127
101324.999924482
101324.999995147
101324.999999808
101324.999999997
101324.999999998
101324.999999998
101324.999999998
101324.999999998
101324.999999998
101324.999999998
101324.999999998
101324.999999998
101324.999999998
101325.063121757
101325.047720336
101325.003305839
101324.999972785
101324.999993744
101324.999999902
101324.999999999
101324.999999999
101324.999999999
101324.999999999
101324.999999999
101324.999999999
101324.999999999
101324.999999999
101324.999999999
101329.312147299
101326.281707978
101325.026149647
101324.999852561
101324.999963775
101324.999999241
101324.999999999
101325
101325
101325
101324.999999999
101325
101324.999999999
101324.999999999
101324.999999999
101438.181005296
101332.793309441
101325.041012855
101324.999455321
101324.999900301
101324.999998352
101324.999999999
101325
101325
101325
101325
101325
101325
101325
101325
101324.997895654
101324.999560126
101324.999924482
101324.999995147
101324.999999809
101324.999999999
101325
101325
101325
101325
101324.999999999
101324.999999999
101325
101324.999999999
101324.999999999
101325.063121752
101325.047720333
101325.003305838
101324.999972784
101324.999993744
101324.999999903
101325
101325
101325
101325
101325
101325
101325
101325
101325
101329.312147008
101326.281707895
101325.026149645
101324.999852562
101324.999963776
101324.999999242
101324.999999999
101325
101325
101325
101325
101325
101325
101325
101325
101438.180990952
101332.793308631
101325.041012851
101324.999455322
101324.999900301
101324.999998353
101324.999999999
101325
101325
101325
101325
101325
101325
101325
101325
102478.163379901
101328.998783606
101325.002089103
101324.998785287
101324.999851478
101324.999998805
101324.999999999
101325
101325
101325
101325
101325
101325
101325
101325
102701.813119271
101330.112525141
101324.998808914
101324.998076634
101324.999796604
101324.999998641
101325
101325
101325
101325
101325
101325
101325
101325
101325
102749.137110208
101330.537971054
101324.998045818
101324.997577735
101324.999749552
101324.999998341
101325
101325
101325
101325
101325
101325
101325
101325
101325
102478.16347803
101328.998783848
101325.002089102
101324.998785287
101324.999851478
101324.999998805
101324.999999999
101325
101325
101325
101325
101325
101325
101325
101325
102701.813173147
101330.112525548
101324.998808913
101324.998076633
101324.999796604
101324.999998641
101325
101325
101325
101325
101325
101325
101325
101325
101325
102749.137112234
101330.537971257
101324.998045819
101324.997577735
101324.999749552
101324.999998341
101325
101325
101325
101325
101325
101325
101325
101325
101325
102478.163375157
101328.998783595
101325.002089103
101324.998785287
101324.999851478
101324.999998805
101324.999999999
101325
101325
101325
101325
101325
101325
101325
101325
102701.813116459
101330.112525119
101324.998808914
101324.998076634
101324.999796604
101324.999998641
101325
101325
101325
101325
101325
101325
101325
101325
101325
102749.137109047
101330.537971034
101324.998045819
101324.997577735
101324.999749552
101324.999998341
101325
101325
101325
101325
101325
101325
101325
101325
101325
102478.163357009
101328.998783487
101325.002089103
101324.998785287
101324.999851478
101324.999998805
101324.999999999
101325
101325
101325
101325
101325
101325
101325
101324.999999999
102701.813117569
101330.112524981
101324.998808914
101324.998076634
101324.999796604
101324.999998641
101325
101325
101325
101325
101325
101325
101325
101325
101325
102749.137135398
101330.537971028
101324.998045818
101324.997577735
101324.999749552
101324.999998341
101325
101325
101325
101325
101325
101325
101325
101325
101325
102478.163524149
101328.998784008
101325.002089102
101324.998785287
101324.999851478
101324.999998805
101324.999999999
101325
101325
101325
101325
101325
101325
101325
101325
102701.813194999
101330.112525804
101324.998808913
101324.998076634
101324.999796604
101324.999998641
101325
101325
101325
101325
101325
101325
101325
101325
101325
102749.137114594
101330.537971356
101324.998045819
101324.997577735
101324.999749552
101324.999998341
101325
101325
101325
101325
101325
101325
101325
101325
101325
102478.163353352
101328.998783481
101325.002089103
101324.998785287
101324.999851478
101324.999998805
101324.999999999
101325
101325
101325
101325
101325
101325
101325
101325
102701.813114789
101330.112524966
101324.998808914
101324.998076634
101324.999796604
101324.999998641
101325
101325
101325
101325
101325
101325
101325
101325
101325
102749.137134824
101330.537971015
101324.998045818
101324.997577735
101324.999749552
101324.999998341
101325
101325
101325
101325
101325
101325
101325
101325
101325
)
;

boundaryField
{
    inlet
    {
        type            timeVaryingMappedFixedValue;
        fieldTable      p;
        value           nonuniform List<scalar> 
24
(
520735.567085947
520735.567085947
520735.567085947
520735.567085947
520735.567085947
520735.567085947
520735.567085947
520735.567085947
520735.567085947
520735.567085947
520735.567085947
520735.567085947
520735.567085947
520735.567085947
520735.567085947
520735.567085947
520735.567085947
520735.567085947
520735.567085947
520735.567085947
520735.567085947
520735.567085947
520735.567085947
520735.567085947
)
;
    }
    outlet
    {
        type            freestreamPressure;
        freestreamValue uniform 101325;
        supersonic      false;
        value           nonuniform List<scalar> 
156
(
101324.997916663
101324.999744001
101324.999953299
101324.999995921
101324.999999821
101324.999999999
101325
101325
101325
101325
101325
101325
101325
101325
101325
101324.997916664
101324.999744002
101324.999953299
101324.99999592
101324.99999982
101324.999999997
101324.999999999
101324.999999999
101324.999999999
101324.999999999
101324.999999999
101324.999999999
101324.999999999
101324.999999999
101324.999999999
101324.997916663
101324.999744002
101324.999953299
101324.999995921
101324.999999822
101324.999999999
101325
101325
101325
101325
101325
101325
101325
101325
101324.999999999
101324.997916662
101324.999744001
101324.999953299
101324.999995921
101324.999999821
101324.999999999
101325
101325
101325
101325
101325
101325
101325
101325
101325
101324.997916664
101324.999744002
101324.999953299
101324.99999592
101324.99999982
101324.999999997
101324.999999999
101324.999999999
101324.999999999
101324.999999999
101324.999999999
101324.999999999
101324.999999999
101324.999999999
101324.999999999
101324.997916663
101324.999744001
101324.999953299
101324.999995921
101324.999999822
101324.999999999
101325
101325
101325
101325
101325
101325
101325
101325
101324.999999999
101325
101325
101325
101325
101325
101325
101325
101324.999999998
101324.999999999
101325
101325
101325
101325
101325
101324.999999999
101325
101325
101325
101325
101325
101325
101325
101325
101325
101325
101325
101325
101325
101324.999999999
101324.999999999
101325
101325
101325
101325
101325
101325
101325
101325
101325
101325
101325
101325
101324.998738616
101325.036634499
101327.951202036
101416.88213128
101324.998738617
101325.036634496
101327.951201898
101416.882133917
101324.998738617
101325.036634499
101327.951202028
101416.882130972
101324.998738616
101325.036634496
101327.951201877
101416.88212795
101324.998738617
101325.036634498
101327.951202047
101416.88213833
101324.998738616
101325.036634496
101327.951201873
101416.882127759
)
;
    }
    sides
    {
        type            zeroGradient;
    }
}


// ************************************************************************* //
