/*--------------------------------*- C++ -*----------------------------------*\
  =========                 |
  \\      /  F ield         | OpenFOAM: The Open Source CFD Toolbox
   \\    /   O peration     | Website:  https://openfoam.org
    \\  /    A nd           | Version:  11
     \\/     M anipulation  |
\*---------------------------------------------------------------------------*/
FoamFile
{
    format      ascii;
    class       volScalarField;
    location    "0.0000300147";
    object      rho;
}
// * * * * * * * * * * * * * * * * * * * * * * * * * * * * * * * * * * * * * //

dimensions      [1 -3 0 0 0 0 0];

internalField   nonuniform List<scalar> 
900
(
1.41484711612032
1.44489733450874
1.47574128445066
1.42569225858218
1.45365135926395
1.48243477963597
1.43512311568566
1.46316475682042
1.48981959452118
1.41484711351771
1.44489733033825
1.47574127894798
1.42569225931387
1.45365135873152
1.482434776823
1.43512311303474
1.46316475378838
1.4898195924398
1.41484711611026
1.4448973344983
1.47574128442418
1.42569225857382
1.45365135925785
1.48243477961044
1.43512311568452
1.46316475681983
1.48981959451072
1.41484711605218
1.44489733449176
1.47574128481968
1.42569225855487
1.45365135927862
1.48243477981449
1.43512311569023
1.46316475692318
1.4898195947014
1.41484711371888
1.44489733100735
1.47574127995368
1.42569225942619
1.45365135929526
1.48243477761853
1.43512311306398
1.46316475395304
1.48981959265
1.41484711603804
1.44489733445754
1.47574128477837
1.42569225853432
1.45365135923493
1.48243477977736
1.43512311567711
1.46316475690849
1.48981959468981
1.54623441984621
1.68744449655843
1.9744663918242
1.55079514196654
1.69043437579327
1.97663973041435
1.55556375753202
1.69322259529948
1.97859846370767
1.54623441171196
1.68744448818269
1.97446635772363
1.55079513740076
1.69043437446336
1.97663970404704
1.55556375666965
1.693222595967
1.97859844191097
1.54623441967335
1.68744449601288
1.97446639196603
1.5507951418302
1.69043437527559
1.97663973130243
1.55556375752318
1.69322259523248
1.97859846407194
1.54623442128474
1.68744449932836
1.97446639333404
1.5507951425145
1.6904343790895
1.97663973634329
1.55556375699456
1.6932225949843
1.97859845819803
1.54623440930292
1.68744447161428
1.97446634269684
1.55079513520538
1.69043436062059
1.97663969471792
1.55556375518458
1.69322259244821
1.9785984515667
1.54623442125394
1.68744449909687
1.97446639350545
1.55079514246925
1.69043437891702
1.97663973705531
1.5555637569668
1.69322259500911
1.97859845827944
2.45483826381777
2.45609911220776
2.45724969784866
2.45483817066395
2.45609903203642
2.45724958229181
2.45483826871595
2.45609911467986
2.45724969401083
2.45483823666204
2.45609907293391
2.45724959400397
2.45483812075145
2.45609903200157
2.45724975339074
2.45483823702375
2.45609907481145
2.45724959521671
2.71515553335653
2.71568514109445
2.71600998513112
2.71515557338244
2.71568536719105
2.71601022122804
2.71515552358743
2.71568512181575
2.71600996311289
2.71515527852802
2.7156849558288
2.71601014812716
2.71515569794306
2.71568544399746
2.71601014603057
2.71515526165783
2.71568493304236
2.71601015160949
2.75711269774816
2.75734658121124
2.75739531588967
2.75711280486941
2.75734767258924
2.75740585766589
2.75711263848985
2.7573465646388
2.757395635502
2.7571115645123
2.7573474490255
2.75741203085615
2.75711372003323
2.75734611961851
2.75738790557469
2.75711149665411
2.75734739366009
2.75741233202245
2.6546924208502
2.65474481857247
2.65467390610676
2.65469278286402
2.65474613955718
2.65467522149051
2.65469238761943
2.65474473651867
2.65467395258225
2.65469210034267
2.65474449824492
2.65467604489992
2.65469304148229
2.65474612488274
2.65467254737058
2.65469206923957
2.65474440619165
2.65467607949532
2.50565960938959
2.50566175574202
2.50561208001338
2.50565972273277
2.50566222262148
2.50561206068192
2.50565960054832
2.50566172202143
2.50561208441012
2.50565949449058
2.50566142559023
2.50561214716999
2.50565981543158
2.50566247291509
2.50561189395606
2.50565948694997
2.50566139119054
2.50561214947652
2.21326541144854
2.21325879677657
2.21325548619504
2.21326537130605
2.21325879554385
2.21325547762699
2.21326541436174
2.21325879650025
2.21325548225162
2.21326542046071
2.21325877210122
2.21325542064675
2.21326535760132
2.21325882214445
2.21325555895706
2.21326542311194
2.21325877204855
2.2132554174014
1.77285295879412
1.77284775818073
1.77285224031489
1.77285295010794
1.7728477326408
1.77285221238335
1.7728529595568
1.77284776002579
1.77285224136876
1.77285296604936
1.77284777126346
1.77285223551329
1.77285294387174
1.77284772515856
1.77285222702663
1.77285296654222
1.77284777313016
1.77285223679565
1.33838521196821
1.33830693532006
1.33832782788678
1.33838521453443
1.33830693027054
1.33832782143361
1.33838521183713
1.3383069356557
1.33832782831107
1.33838521441771
1.33830694104659
1.33832783190559
1.33838521428651
1.3383069277303
1.33832782154066
1.33838521430348
1.33830694134863
1.33832783204237
1.4123803656754
1.43690182718233
1.44094264060929
1.41238035917452
1.43690183024739
1.44094263921571
1.41238036567307
1.436901827183
1.44094264060936
1.41238036567634
1.43690182718039
1.44094264060818
1.4123803591604
1.43690183025319
1.44094263921062
1.41238036567373
1.43690182717555
1.44094264060336
1.13796220913962
1.13796222293277
1.13796222600005
1.13796222657466
1.13796222661297
1.13796222661447
1.13796222661448
1.13796222661448
1.13796222661448
1.13796222661448
1.13796222661448
1.13796222661448
1.13796222661448
1.13796222661448
1.13796222661448
1.13796272889148
1.13796260433224
1.13796225264426
1.13796222639949
1.13796222656491
1.13796222661371
1.13796222661448
1.13796222661448
1.13796222661448
1.13796222661448
1.13796222661448
1.13796222661448
1.13796222661448
1.13796222661448
1.13796222661448
1.13799631552529
1.13797215771844
1.13796242894428
1.1379622254376
1.13796222632701
1.13796222660849
1.13796222661447
1.13796222661448
1.13796222661448
1.13796222661448
1.13796222661448
1.13796222661448
1.13796222661448
1.13796222661448
1.13796222661448
1.13883940338996
1.13802096608775
1.13796253929006
1.13796222226577
1.13796222582303
1.13796222660147
1.13796222661446
1.13796222661447
1.13796222661448
1.13796222661448
1.13796222661448
1.13796222661447
1.13796222661447
1.13796222661448
1.13796222661448
1.13796220913964
1.13796222293278
1.13796222600006
1.13796222657466
1.13796222661297
1.13796222661448
1.13796222661449
1.13796222661449
1.13796222661449
1.13796222661449
1.13796222661449
1.13796222661449
1.13796222661449
1.13796222661448
1.13796222661448
1.13796272889144
1.13796260433221
1.13796225264427
1.13796222639951
1.13796222656492
1.13796222661372
1.13796222661449
1.13796222661449
1.13796222661449
1.13796222661449
1.13796222661449
1.13796222661449
1.13796222661449
1.13796222661449
1.13796222661449
1.13799631552364
1.13797215771819
1.13796242894429
1.1379622254376
1.13796222632701
1.13796222660849
1.13796222661447
1.13796222661448
1.13796222661448
1.13796222661448
1.13796222661448
1.13796222661448
1.13796222661448
1.13796222661448
1.13796222661449
1.13883940341646
1.13802096608888
1.13796253929007
1.13796222226577
1.13796222582303
1.13796222660146
1.13796222661446
1.13796222661447
1.13796222661447
1.13796222661447
1.13796222661447
1.13796222661447
1.13796222661447
1.13796222661447
1.13796222661448
1.13796220913963
1.13796222293278
1.13796222600005
1.13796222657466
1.13796222661297
1.13796222661447
1.13796222661448
1.13796222661448
1.13796222661448
1.13796222661448
1.13796222661448
1.13796222661448
1.13796222661448
1.13796222661448
1.13796222661448
1.13796272889148
1.13796260433224
1.13796225264426
1.13796222639949
1.13796222656491
1.13796222661371
1.13796222661448
1.13796222661448
1.13796222661448
1.13796222661448
1.13796222661448
1.13796222661448
1.13796222661448
1.13796222661448
1.13796222661448
1.13799631552517
1.13797215771842
1.13796242894428
1.1379622254376
1.13796222632701
1.13796222660849
1.13796222661447
1.13796222661448
1.13796222661448
1.13796222661448
1.13796222661448
1.13796222661448
1.13796222661448
1.13796222661448
1.13796222661448
1.13883940338679
1.13802096608762
1.13796253929006
1.13796222226577
1.13796222582303
1.13796222660147
1.13796222661446
1.13796222661447
1.13796222661448
1.13796222661448
1.13796222661448
1.13796222661448
1.13796222661447
1.13796222661448
1.13796222661448
1.13796220913962
1.13796222293277
1.13796222600005
1.13796222657466
1.13796222661297
1.13796222661447
1.13796222661448
1.13796222661448
1.13796222661448
1.13796222661448
1.13796222661448
1.13796222661448
1.13796222661448
1.13796222661448
1.13796222661448
1.13796272889144
1.13796260433221
1.13796225264426
1.13796222639949
1.13796222656491
1.13796222661371
1.13796222661448
1.13796222661448
1.13796222661448
1.13796222661448
1.13796222661448
1.13796222661448
1.13796222661448
1.13796222661448
1.13796222661448
1.13799631552335
1.13797215771798
1.13796242894428
1.1379622254376
1.13796222632701
1.13796222660849
1.13796222661447
1.13796222661448
1.13796222661448
1.13796222661448
1.13796222661448
1.13796222661448
1.13796222661448
1.13796222661448
1.13796222661448
1.13883940335652
1.13802096608529
1.13796253929004
1.13796222226578
1.13796222582303
1.13796222660147
1.13796222661447
1.13796222661448
1.13796222661448
1.13796222661448
1.13796222661448
1.13796222661448
1.13796222661447
1.13796222661448
1.13796222661448
1.13796220913964
1.13796222293279
1.13796222600006
1.13796222657466
1.13796222661297
1.13796222661448
1.13796222661449
1.13796222661449
1.13796222661449
1.13796222661449
1.13796222661449
1.13796222661449
1.13796222661449
1.13796222661448
1.13796222661448
1.13796272889148
1.13796260433224
1.13796225264428
1.13796222639951
1.13796222656492
1.13796222661372
1.13796222661449
1.13796222661449
1.13796222661449
1.13796222661449
1.13796222661449
1.13796222661449
1.13796222661449
1.13796222661449
1.13796222661449
1.13799631552556
1.13797215771861
1.1379624289443
1.1379622254376
1.13796222632701
1.13796222660849
1.13796222661447
1.13796222661448
1.13796222661448
1.13796222661448
1.13796222661448
1.13796222661448
1.13796222661448
1.13796222661448
1.13796222661448
1.13883940346326
1.13802096609134
1.13796253929008
1.13796222226577
1.13796222582303
1.13796222660146
1.13796222661446
1.13796222661447
1.13796222661447
1.13796222661447
1.13796222661447
1.13796222661447
1.13796222661447
1.13796222661447
1.13796222661448
1.13796220913963
1.13796222293277
1.13796222600005
1.13796222657466
1.13796222661297
1.13796222661447
1.13796222661448
1.13796222661448
1.13796222661448
1.13796222661448
1.13796222661448
1.13796222661448
1.13796222661448
1.13796222661448
1.13796222661448
1.13796272889144
1.13796260433221
1.13796225264426
1.13796222639949
1.13796222656491
1.13796222661371
1.13796222661448
1.13796222661448
1.13796222661448
1.13796222661448
1.13796222661448
1.13796222661448
1.13796222661448
1.13796222661448
1.13796222661448
1.13799631552329
1.13797215771796
1.13796242894427
1.1379622254376
1.13796222632701
1.13796222660849
1.13796222661447
1.13796222661448
1.13796222661448
1.13796222661448
1.13796222661448
1.13796222661448
1.13796222661448
1.13796222661448
1.13796222661448
1.13883940335459
1.13802096608522
1.13796253929005
1.13796222226577
1.13796222582303
1.13796222660147
1.13796222661446
1.13796222661448
1.13796222661448
1.13796222661448
1.13796222661448
1.13796222661448
1.13796222661447
1.13796222661448
1.13796222661448
1.14669630031093
1.13799324120252
1.13796224139732
1.13796221690212
1.13796222543902
1.13796222660507
1.13796222661447
1.13796222661448
1.13796222661448
1.13796222661448
1.13796222661448
1.13796222661448
1.13796222661448
1.13796222661448
1.13796222661448
1.14843175941451
1.13800240813304
1.13796221672265
1.13796221124212
1.13796222500332
1.13796222660376
1.13796222661448
1.13796222661448
1.13796222661448
1.13796222661448
1.13796222661448
1.13796222661448
1.13796222661448
1.13796222661448
1.13796222661448
1.14880817245943
1.13800586120785
1.1379622105927
1.13796220725705
1.13796222463042
1.13796222660138
1.13796222661448
1.13796222661448
1.13796222661448
1.13796222661448
1.13796222661448
1.13796222661448
1.13796222661448
1.13796222661448
1.13796222661448
1.14669630104864
1.13799324120441
1.13796224139731
1.13796221690212
1.13796222543902
1.13796222660507
1.13796222661447
1.13796222661448
1.13796222661448
1.13796222661448
1.13796222661448
1.13796222661448
1.13796222661448
1.13796222661448
1.13796222661448
1.14843175982314
1.13800240813621
1.13796221672264
1.13796221124211
1.13796222500332
1.13796222660376
1.13796222661448
1.13796222661448
1.13796222661448
1.13796222661448
1.13796222661448
1.13796222661448
1.13796222661448
1.13796222661448
1.13796222661448
1.14880817248607
1.1380058612094
1.1379622105927
1.13796220725704
1.13796222463043
1.13796222660139
1.13796222661448
1.13796222661448
1.13796222661448
1.13796222661448
1.13796222661448
1.13796222661448
1.13796222661448
1.13796222661448
1.13796222661448
1.14669630027529
1.13799324120244
1.13796224139732
1.13796221690212
1.13796222543902
1.13796222660507
1.13796222661447
1.13796222661448
1.13796222661448
1.13796222661448
1.13796222661448
1.13796222661448
1.13796222661448
1.13796222661448
1.13796222661448
1.14843175939317
1.13800240813287
1.13796221672265
1.13796221124212
1.13796222500332
1.13796222660376
1.13796222661448
1.13796222661448
1.13796222661448
1.13796222661448
1.13796222661448
1.13796222661448
1.13796222661448
1.13796222661448
1.13796222661448
1.14880817244924
1.13800586120769
1.1379622105927
1.13796220725705
1.13796222463042
1.13796222660138
1.13796222661448
1.13796222661448
1.13796222661448
1.13796222661448
1.13796222661448
1.13796222661448
1.13796222661448
1.13796222661448
1.13796222661448
1.14669630012962
1.13799324120159
1.13796224139732
1.13796221690212
1.13796222543902
1.13796222660507
1.13796222661447
1.13796222661448
1.13796222661448
1.13796222661448
1.13796222661448
1.13796222661448
1.13796222661448
1.13796222661448
1.13796222661448
1.14843175939045
1.13800240813177
1.13796221672265
1.13796221124212
1.13796222500332
1.13796222660376
1.13796222661448
1.13796222661448
1.13796222661448
1.13796222661448
1.13796222661448
1.13796222661448
1.13796222661448
1.13796222661448
1.13796222661448
1.1488081726427
1.13800586120762
1.1379622105927
1.13796220725704
1.13796222463042
1.13796222660138
1.13796222661448
1.13796222661448
1.13796222661448
1.13796222661448
1.13796222661448
1.13796222661448
1.13796222661448
1.13796222661448
1.13796222661448
1.14669630139928
1.13799324120565
1.13796224139731
1.13796221690212
1.13796222543902
1.13796222660507
1.13796222661447
1.13796222661448
1.13796222661448
1.13796222661448
1.13796222661448
1.13796222661448
1.13796222661448
1.13796222661448
1.13796222661448
1.1484317599931
1.13800240813821
1.13796221672264
1.13796221124212
1.13796222500332
1.13796222660376
1.13796222661448
1.13796222661448
1.13796222661448
1.13796222661448
1.13796222661448
1.13796222661448
1.13796222661448
1.13796222661448
1.13796222661448
1.14880817251055
1.13800586121016
1.1379622105927
1.13796220725704
1.13796222463043
1.13796222660139
1.13796222661448
1.13796222661448
1.13796222661448
1.13796222661448
1.13796222661448
1.13796222661448
1.13796222661448
1.13796222661448
1.13796222661448
1.14669630010202
1.13799324120155
1.13796224139732
1.13796221690212
1.13796222543902
1.13796222660507
1.13796222661447
1.13796222661448
1.13796222661448
1.13796222661448
1.13796222661448
1.13796222661448
1.13796222661448
1.13796222661448
1.13796222661448
1.14843175936925
1.13800240813166
1.13796221672265
1.13796221124212
1.13796222500332
1.13796222660376
1.13796222661448
1.13796222661448
1.13796222661448
1.13796222661448
1.13796222661448
1.13796222661448
1.13796222661448
1.13796222661448
1.13796222661448
1.14880817263779
1.13800586120752
1.1379622105927
1.13796220725704
1.13796222463042
1.13796222660138
1.13796222661448
1.13796222661448
1.13796222661448
1.13796222661448
1.13796222661448
1.13796222661448
1.13796222661448
1.13796222661448
1.13796222661448
)
;

boundaryField
{
    inlet
    {
        type            calculated;
        value           nonuniform List<scalar> 
24
(
1.39192859020216
1.39192859020216
1.39192859020216
1.39192859020216
1.39192859020216
1.39192859020216
1.39192859020216
1.39192859020216
1.39192859020216
1.39192859020216
1.39192859020216
1.39192859020216
1.39192859020216
1.39192859020216
1.39192859020216
1.39192859020216
1.39192859020216
1.39192859020216
1.39192859020216
1.39192859020216
1.39192859020216
1.39192859020216
1.39192859020216
1.39192859020216
)
;
    }
    outlet
    {
        type            calculated;
        value           nonuniform List<scalar> 
156
(
1.13796220321691
1.13796222373941
1.13796222608999
1.13796222656867
1.13796222661247
1.13796222661447
1.13796222661448
1.13796222661448
1.13796222661448
1.13796222661448
1.13796222661448
1.13796222661448
1.13796222661448
1.13796222661448
1.13796222661448
1.13796220321693
1.13796222373942
1.13796222608999
1.13796222656866
1.13796222661246
1.13796222661445
1.1379622266145
1.1379622266145
1.1379622266145
1.1379622266145
1.1379622266145
1.1379622266145
1.1379622266145
1.13796222661449
1.13796222661449
1.13796220321691
1.13796222373941
1.13796222608999
1.13796222656867
1.13796222661248
1.13796222661447
1.13796222661448
1.13796222661448
1.13796222661448
1.13796222661448
1.13796222661448
1.13796222661448
1.13796222661448
1.13796222661448
1.13796222661449
1.13796220321691
1.13796222373941
1.13796222608999
1.13796222656867
1.13796222661248
1.13796222661447
1.13796222661448
1.13796222661448
1.13796222661448
1.13796222661448
1.13796222661448
1.13796222661448
1.13796222661448
1.13796222661448
1.13796222661448
1.13796220321693
1.13796222373942
1.13796222608999
1.13796222656866
1.13796222661246
1.13796222661445
1.1379622266145
1.1379622266145
1.1379622266145
1.1379622266145
1.1379622266145
1.1379622266145
1.1379622266145
1.13796222661449
1.13796222661449
1.13796220321691
1.13796222373941
1.13796222608999
1.13796222656867
1.13796222661248
1.13796222661447
1.13796222661448
1.13796222661448
1.13796222661448
1.13796222661448
1.13796222661448
1.13796222661448
1.13796222661448
1.13796222661448
1.13796222661449
1.13796222661448
1.13796222661448
1.13796222661448
1.13796222661448
1.13796222661448
1.13796222661448
1.13796222661448
1.13796222661449
1.13796222661448
1.13796222661448
1.13796222661448
1.13796222661448
1.13796222661448
1.13796222661448
1.13796222661447
1.13796222661448
1.13796222661448
1.13796222661448
1.13796222661448
1.13796222661448
1.13796222661448
1.13796222661448
1.13796222661448
1.13796222661448
1.13796222661448
1.13796222661448
1.13796222661448
1.13796222661448
1.13796222661449
1.13796222661448
1.13796222661449
1.13796222661448
1.13796222661448
1.13796222661448
1.13796222661448
1.13796222661448
1.13796222661449
1.13796222661448
1.13796222661448
1.13796222661448
1.13796222661448
1.13796222661448
1.13796221244811
1.13796263804973
1.13799537101557
1.13899413773905
1.13796221244813
1.13796263804969
1.13799537101402
1.13899413776867
1.13796221244812
1.13796263804972
1.13799537101548
1.1389941377356
1.13796221244811
1.13796263804969
1.13799537101379
1.13899413770165
1.13796221244813
1.13796263804971
1.1379953710157
1.13899413781824
1.13796221244812
1.13796263804969
1.13799537101373
1.13899413769951
)
;
    }
    sides
    {
        type            calculated;
        value           nonuniform List<scalar> 
84
(
1.41484711612032
1.44489733450874
1.47574128445066
1.41484711351771
1.44489733033825
1.47574127894798
1.41484711611026
1.4448973344983
1.47574128442418
1.41484711605218
1.44489733449176
1.47574128481968
1.41484711371888
1.44489733100735
1.47574127995368
1.41484711603804
1.44489733445754
1.47574128477837
1.54623441984621
1.68744449655843
1.9744663918242
1.54623441171196
1.68744448818269
1.97446635772363
1.54623441967335
1.68744449601288
1.97446639196603
1.54623442128474
1.68744449932836
1.97446639333404
1.54623440930292
1.68744447161428
1.97446634269684
1.54623442125394
1.68744449909687
1.97446639350545
2.45483826381777
2.45483817066395
2.45483826871595
2.45483823666204
2.45483812075145
2.45483823702375
2.71515553335653
2.71515557338244
2.71515552358743
2.71515527852802
2.71515569794306
2.71515526165783
2.75711269774816
2.75711280486941
2.75711263848985
2.7571115645123
2.75711372003323
2.75711149665411
2.6546924208502
2.65469278286402
2.65469238761943
2.65469210034267
2.65469304148229
2.65469206923957
2.50565960938959
2.50565972273277
2.50565960054832
2.50565949449058
2.50565981543158
2.50565948694997
2.21326541144854
2.21326537130605
2.21326541436174
2.21326542046071
2.21326535760132
2.21326542311194
1.77285295879412
1.77285295010794
1.7728529595568
1.77285296604936
1.77285294387174
1.77285296654222
1.33838521196821
1.33838521453443
1.33838521183713
1.33838521441771
1.33838521428651
1.33838521430348
)
;
    }
}


// ************************************************************************* //
