/*--------------------------------*- C++ -*----------------------------------*\
  =========                 |
  \\      /  F ield         | OpenFOAM: The Open Source CFD Toolbox
   \\    /   O peration     | Website:  https://openfoam.org
    \\  /    A nd           | Version:  11
     \\/     M anipulation  |
\*---------------------------------------------------------------------------*/
FoamFile
{
    format      ascii;
    class       volScalarField;
    location    "0.0000300147";
    object      T;
}
// * * * * * * * * * * * * * * * * * * * * * * * * * * * * * * * * * * * * * //

dimensions      [0 0 0 1 0 0 0];

internalField   nonuniform List<scalar> 
900
(
1158.69308142892
1104.26104421782
1045.1956068402
1152.71746890361
1100.58289681525
1043.12359946397
1147.53666504305
1095.9378609565
1040.07584741119
1158.69308390455
1104.26104640057
1045.19560952058
1152.71747197257
1100.58289971221
1043.12360193414
1147.53666479105
1095.93786081502
1040.07584738016
1158.69308143367
1104.26104423077
1045.19560686148
1152.71746890891
1100.58289682713
1043.1235994799
1147.53666504313
1095.93786095553
1040.07584740552
1158.69308142183
1104.26104423681
1045.19560697848
1152.71746890525
1100.58289683483
1043.12359953693
1147.53666504634
1095.93786099116
1040.07584745978
1158.69308393033
1104.26104656216
1045.19560973508
1152.71747199409
1100.58289987523
1043.12360215104
1147.53666481286
1095.9378608888
1040.07584748529
1158.69308142893
1104.2610442507
1045.19560700916
1152.7174689169
1100.58289685062
1043.12359957053
1147.53666505931
1095.93786100721
1040.07584748225
970.147972332754
859.816988278409
715.491701119304
969.321937857646
859.496778639921
715.367576895888
967.660876903078
858.711530390265
715.049237166387
970.147977161807
859.817000190359
715.491721700335
969.321941911659
859.496788774057
715.367595135433
967.660877053172
858.711530566917
715.049236508099
970.147972354556
859.816988306861
715.49170118777
969.32193787715
859.49677863872
715.367576922051
967.660876897685
858.71153035476
715.049237016471
970.147972732124
859.816987922099
715.491698730536
969.321938054529
859.496779054464
715.367576443686
967.660876747165
858.711530587056
715.049238084361
970.147976582954
859.816998488542
715.491723480779
969.321941382332
859.49678688561
715.367597467493
967.66087680265
858.711530247611
715.049239441834
970.147972804204
859.816988024099
715.491698859291
969.32193812235
859.496779172949
715.367576679304
967.660876774993
858.711530660181
715.049238255655
566.202174161652
566.160948602015
566.046020167199
566.20219149386
566.160964548007
566.046017637529
566.202174491475
566.160948795721
566.046019867444
566.202173097967
566.160949995111
566.046022094548
566.202190896081
566.160965491605
566.046024804388
566.202173057577
566.160950350521
566.04602264202
466.861908224031
466.862191240275
466.828941113144
466.861905596284
466.86218366957
466.8289466494
466.861907904424
466.862191893768
466.828941569874
466.861897530657
466.862195969931
466.828963118331
466.861911942162
466.862166915018
466.828913809314
466.861897317004
466.862195858799
466.828963722619
431.17817368119
431.185550677182
431.178263443064
431.178184998021
431.185678461033
431.179000013945
431.178171890589
431.185546456354
431.178280429395
431.178143565158
431.185568962812
431.179323365789
431.178193775584
431.185574959466
431.177852546983
431.178142265003
431.185562367479
431.179337055083
418.945683596136
418.957374337587
418.966643927959
418.945695602479
418.957449633198
418.966708090737
418.945682912898
418.95737013271
418.966647475443
418.945689220677
418.95736920233
418.966774919511
418.945689782809
418.95744253415
418.966551436778
418.945688863394
418.957364624024
418.966777578828
416.466116462448
416.475603314832
416.484603987671
416.466124519554
416.475629173015
416.484603575593
416.46611585623
416.475601637579
416.484604702042
416.466109769135
416.475591775788
416.484621744841
416.466130465846
416.475638169191
416.484580691999
416.466109218626
416.475590098509
416.484622448552
403.726567126307
403.728860692228
403.733275152649
403.726564853636
403.728860209285
403.733273855058
403.726567251413
403.72886066901
403.733274867362
403.726565650622
403.728858260399
403.73327038324
403.726565570791
403.728862904312
403.73328058437
403.726565703085
403.728858233912
403.733270197233
368.162482809358
368.162347008339
368.162619565018
368.162481648122
368.16234383905
368.1626161833
368.162482886839
368.162347219023
368.162619690793
368.162483251154
368.16234836396
368.162618894552
368.162481175642
368.162343031454
368.162617913305
368.162483285487
368.162348559309
368.162619031166
325.327354844791
325.322920244856
325.324801470756
325.327355146555
325.322919437287
325.324800386243
325.327354831106
325.322920299679
325.324801542097
325.327355208745
325.322921096717
325.324801943187
325.327355097087
325.322918983509
325.324800346203
325.327355196126
325.322921146203
325.324801975812
1230.55767733297
1223.65839591485
1221.45070237204
1230.55767772846
1223.65839811926
1221.45070228271
1230.55767733298
1223.65839591717
1221.45070237025
1230.55767732664
1223.65839591723
1221.45070237134
1230.55767773596
1223.65839812002
1221.45070228866
1230.55767732641
1223.65839592274
1221.45070237728
299.999998376397
299.99999966824
299.99999993839
299.99999999613
299.999999999833
299.999999999998
300
299.999999999999
300
300
300
300
300
299.999999999999
299.999999999997
300.000054474118
300.000041711511
300.000002925616
299.999999976099
299.999999994545
299.999999999915
300
300
300
300
299.999999999999
300
300
299.999999999999
299.999999999998
300.003780331997
300.001176703573
300.000024083047
299.999999873731
299.999999968535
299.999999999335
300
300
300
300.000000000001
300
300.000000000001
300
299.999999999999
299.999999999999
300.103773525123
300.007588365467
300.000038999211
299.999999533778
299.999999913463
299.999999998554
300.000000000001
300.000000000002
300.000000000002
300.000000000002
300.000000000002
300.000000000002
300.000000000001
300.000000000001
300.000000000001
299.999998376398
299.99999966824
299.999999938389
299.999999996128
299.999999999829
299.999999999993
299.999999999994
299.999999999994
299.999999999994
299.999999999994
299.999999999994
299.999999999994
299.999999999994
299.999999999994
299.999999999995
300.000054474113
300.000041711507
300.000002925614
299.999999976096
299.999999994542
299.99999999991
299.999999999996
299.999999999996
299.999999999996
299.999999999996
299.999999999996
299.999999999996
299.999999999996
299.999999999995
299.999999999995
300.003780331821
300.001176703544
300.000024083046
299.999999873728
299.999999968533
299.999999999333
299.999999999998
299.999999999999
299.999999999999
299.999999999999
299.999999999999
299.999999999999
299.999999999999
299.999999999998
299.999999999998
300.103773528967
300.00758836563
300.000038999211
299.999999533778
299.999999913463
299.999999998554
300.000000000002
300.000000000003
300.000000000003
300.000000000003
300.000000000003
300.000000000003
300.000000000003
300.000000000002
300.000000000002
299.999998376397
299.99999966824
299.99999993839
299.99999999613
299.999999999834
299.999999999999
299.999999999999
300
300
299.999999999999
299.999999999999
299.999999999999
300
299.999999999998
299.999999999996
300.000054474118
300.000041711511
300.000002925616
299.999999976099
299.999999994545
299.999999999915
299.999999999999
300
300
300
299.999999999999
299.999999999999
300
299.999999999999
299.999999999998
300.003780331984
300.001176703571
300.000024083047
299.999999873731
299.999999968535
299.999999999335
300
300
300
300
300
300
300
300
299.999999999999
300.103773524724
300.007588365451
300.000038999211
299.999999533778
299.999999913463
299.999999998554
300.000000000001
300.000000000002
300.000000000002
300.000000000002
300.000000000002
300.000000000002
300.000000000001
300.000000000001
300.000000000002
299.999998376397
299.99999966824
299.99999993839
299.99999999613
299.999999999834
299.999999999999
300
299.999999999999
300
299.999999999999
299.999999999999
299.999999999999
300
299.999999999998
299.999999999997
300.000054474113
300.000041711508
300.000002925616
299.9999999761
299.999999994545
299.999999999915
300
300
300
300
299.999999999999
300
300
299.999999999999
299.999999999998
300.00378033178
300.00117670352
300.000024083046
299.999999873731
299.999999968535
299.999999999335
300
300
300
300
300
300
300
299.999999999999
299.999999999999
300.103773521152
300.007588365159
300.00003899921
299.999999533778
299.999999913463
299.999999998554
300.000000000001
300.000000000002
300.000000000002
300.000000000002
300.000000000002
300.000000000002
300.000000000002
300.000000000001
300.000000000001
299.999998376398
299.99999966824
299.999999938389
299.999999996128
299.999999999829
299.999999999993
299.999999999994
299.999999999994
299.999999999994
299.999999999994
299.999999999994
299.999999999994
299.999999999994
299.999999999993
299.999999999995
300.000054474117
300.000041711509
300.000002925614
299.999999976096
299.999999994542
299.99999999991
299.999999999996
299.999999999996
299.999999999996
299.999999999996
299.999999999996
299.999999999996
299.999999999996
299.999999999995
299.999999999995
300.003780332037
300.001176703593
300.000024083047
299.999999873728
299.999999968533
299.999999999333
299.999999999998
299.999999999999
299.999999999999
299.999999999999
299.999999999999
299.999999999999
299.999999999999
299.999999999998
299.999999999998
300.103773534706
300.007588365933
300.000038999213
299.999999533778
299.999999913463
299.999999998554
300.000000000001
300.000000000003
300.000000000003
300.000000000003
300.000000000003
300.000000000003
300.000000000003
300.000000000002
300.000000000001
299.999998376397
299.99999966824
299.99999993839
299.99999999613
299.999999999834
299.999999999999
299.999999999999
300
300
299.999999999999
299.999999999999
299.999999999999
299.999999999999
299.999999999998
299.999999999997
300.000054474113
300.000041711508
300.000002925616
299.9999999761
299.999999994546
299.999999999915
299.999999999999
300
300
300
299.999999999999
299.999999999999
300
299.999999999999
299.999999999998
300.003780331773
300.001176703518
300.000024083047
299.999999873731
299.999999968535
299.999999999335
300
300
300
300
300
300
300
300
299.999999999999
300.103773520907
300.007588365151
300.00003899921
299.999999533778
299.999999913463
299.999999998554
300.000000000001
300.000000000002
300.000000000002
300.000000000002
300.000000000002
300.000000000002
300.000000000002
300.000000000001
300.000000000002
301.103227518479
300.003663028817
300.000002288167
299.999998963976
299.999999870147
299.999999998943
300
300.000000000001
300.000000000001
300.000000000001
300.000000000001
300.000000000001
300
300
300
301.304352440979
300.004543830527
299.999999081244
299.999998357959
299.999999822541
299.999999998803
300
300
300
300
300
300
300
300
300.000000000001
301.344421091312
300.004893119624
299.999998437926
299.999997931416
299.999999781536
299.999999998541
300
300
300
300
300
300
300
300
300
301.103227613093
300.003663029037
300.000002288165
299.999998963976
299.999999870147
299.999999998943
300.000000000001
300.000000000001
300.000000000001
300.000000000001
300.000000000001
300.000000000001
300.000000000001
300.000000000001
300
301.304352491831
300.004543830897
299.999999081243
299.999998357958
299.999999822541
299.999999998803
300
300
300
300
300
300
300
299.999999999999
300
301.344421090266
300.004893119817
299.999998437927
299.999997931416
299.999999781536
299.999999998541
300
300
300
300
300
300
300
300
300
301.103227513898
300.003663028807
300.000002288167
299.999998963976
299.999999870147
299.999999998943
300
300.000000000001
300.000000000001
300.000000000001
300.000000000001
300.000000000001
300.000000000001
300
300
301.304352438329
300.004543830507
299.999999081244
299.999998357959
299.999999822541
299.999999998803
300
300
300
300
300
300
300
300
300.000000000001
301.344421090579
300.004893119606
299.999998437927
299.999997931416
299.999999781536
299.999999998541
300
300
300
300
300
300
300
300
300
301.103227498826
300.003663028709
300.000002288166
299.999998963976
299.999999870147
299.999999998943
300
300.000000000001
300.000000000001
300.000000000001
300.000000000001
300.000000000001
300.000000000001
300
300
301.304352442296
300.004543830387
299.999999081244
299.999998357959
299.999999822541
299.999999998803
300
300
300
300
300
300
300
300
300
301.344421117118
300.004893119607
299.999998437926
299.999997931416
299.999999781536
299.99999999854
300
300
300.000000000001
300
300
300
300
300
300
301.103227656529
300.003663029183
300.000002288166
299.999998963976
299.999999870147
299.999999998943
300.000000000001
300.000000000001
300.000000000001
300.000000000001
300.000000000001
300.000000000001
300.000000000001
300.000000000001
300
301.304352511347
300.004543831128
299.999999081243
299.999998357959
299.999999822541
299.999999998803
300
300
300
300
299.999999999999
300
300
299.999999999999
300
301.344421090767
300.004893119907
299.999998437927
299.999997931416
299.999999781536
299.999999998541
300
300
300
300
300
300
300
300
300
301.103227495326
300.003663028703
300.000002288167
299.999998963976
299.999999870147
299.999999998943
300
300.000000000001
300.000000000001
300.000000000001
300.000000000001
300.000000000001
300.000000000001
300
300
301.304352439704
300.004543830373
299.999999081244
299.999998357959
299.999999822541
299.999999998803
300
300
300
300
300
300
300
300
300.000000000001
301.344421116723
300.004893119596
299.999998437926
299.999997931416
299.999999781536
299.999999998541
300
300
300
300
300
300
300
300
300
)
;

boundaryField
{
    inlet
    {
        type            timeVaryingMappedFixedValue;
        fieldTable      T;
        value           nonuniform List<scalar> 
24
(
1260.470758704
1260.470758704
1260.470758704
1260.470758704
1260.470758704
1260.470758704
1260.470758704
1260.470758704
1260.470758704
1260.470758704
1260.470758704
1260.470758704
1260.470758704
1260.470758704
1260.470758704
1260.470758704
1260.470758704
1260.470758704
1260.470758704
1260.470758704
1260.470758704
1260.470758704
1260.470758704
1260.470758704
)
;
    }
    outlet
    {
        type            freestream;
        freestreamValue uniform 300;
        value           nonuniform List<scalar> 
156
(
300
300
300
300
300
300
300
299.999999999999
300
300
300
300
300
300
300
300
300
300
300
300
300
299.999999999994
299.999999999994
299.999999999994
299.999999999994
299.999999999994
299.999999999994
299.999999999994
299.999999999994
299.999999999995
300
300
300
300
300
300
299.999999999999
300
300
299.999999999999
299.999999999999
299.999999999999
300
299.999999999998
299.999999999996
300
300
300
300
300
300
300
299.999999999999
300
299.999999999999
299.999999999999
299.999999999999
300
300
300
300
300
300
300
300
300
299.999999999994
299.999999999994
299.999999999994
299.999999999994
299.999999999994
299.999999999994
299.999999999994
299.999999999993
299.999999999995
300
300
300
300
300
300
299.999999999999
300
300
299.999999999999
299.999999999999
299.999999999999
299.999999999999
299.999999999998
299.999999999997
300
300
299.999999999999
300.000000000001
300
300.000000000001
300
299.999999999995
300
300
300.000000000002
300
300
300
300
300
299.999999999999
300.000000000002
300
300.000000000001
300
300
300
299.999999999999
300.000000000001
300
300
300
299.999999999995
300
299.999999999998
300.000000000001
300
300
300
300
299.999999999998
299.999999999999
300.000000000002
300
300.000000000001
300
300
300
300
300
300
300
300
300
300
300
300
300
300
300
300
300
300
300
300
300
300
300
300
300
)
;
    }
    sides
    {
        type            zeroGradient;
    }
}


// ************************************************************************* //
