/*--------------------------------*- C++ -*----------------------------------*\
  =========                 |
  \\      /  F ield         | OpenFOAM: The Open Source CFD Toolbox
   \\    /   O peration     | Website:  https://openfoam.org
    \\  /    A nd           | Version:  11
     \\/     M anipulation  |
\*---------------------------------------------------------------------------*/
FoamFile
{
    format      ascii;
    class       volVectorField;
    location    "0.0000300147";
    object      U;
}
// * * * * * * * * * * * * * * * * * * * * * * * * * * * * * * * * * * * * * //

dimensions      [0 1 -1 0 0 0 0];

internalField   nonuniform List<vector> 
900
(
(-9.19957119054528 -15.9341206962723 412.913461031089)
(-6.23632862554644 -10.8016342787594 414.74408818328)
(-4.33534964384066 -7.50904434712351 419.658669207312)
(-5.23830140829317 -9.07299929053456 407.869094709994)
(-3.30075494468757 -5.71707165324254 412.16560188711)
(-2.19455943918612 -3.80108685247818 418.402513472431)
(-3.85837092093565 -6.68289161555683 397.553064865709)
(-2.54697473758655 -4.41148719397317 405.476455247811)
(-1.5841527013714 -2.74383180045577 414.118108379828)
(-18.3991435166097 -2.96725342887292e-10 412.913463647859)
(-12.4726581188432 -7.16510147386242e-10 414.744091017662)
(-8.6706993386343 3.98492842381778e-09 419.658671932148)
(-10.4766039190856 1.62889585512635e-09 407.869098920096)
(-6.60151101956522 7.46863135560213e-10 412.165606386248)
(-4.38911949533623 4.22404710696365e-09 418.402517315564)
(-7.71674192581346 4.21242036476e-12 397.553065699669)
(-5.0939496747682 -1.38631569569247e-09 405.476456183747)
(-3.16830575384883 6.02801640870515e-09 414.118109431088)
(-9.19957119174574 15.9341206970692 412.913461033357)
(-6.23632862821408 10.8016342782043 414.744088184113)
(-4.33534964403 7.50904435675502 419.658669216398)
(-5.23830141083724 9.07299928953638 407.869094711281)
(-3.30075494594367 5.71707165179515 412.165601887682)
(-2.19455943735147 3.80108686426204 418.402513478038)
(-3.85837092238637 6.68289161381353 397.553064863463)
(-2.54697473552286 4.41148718954093 405.476455244265)
(-1.58415269773683 2.74383182025256 414.118108382989)
(9.19957118224116 15.9341206997501 412.913461065374)
(6.23632860522909 10.8016342385203 414.7440881927)
(4.33534962739853 7.50904431309504 419.658669103343)
(5.23830140684553 9.07299926646243 407.8690947319)
(3.30075493009401 5.71707159307587 412.165601882135)
(2.19455945748252 3.80108681457311 418.40251335072)
(3.85837090500249 6.68289160457148 397.553064858991)
(2.5469748127528 4.41148716145055 405.476455226458)
(1.58415302798493 2.7438318221247 414.118108376623)
(18.399143519994 3.11617723751823e-10 412.91346356529)
(12.4726582787911 3.09688347058131e-09 414.744090731944)
(8.67069971190103 6.91886011143122e-09 419.658671484944)
(10.4766039130764 -4.29427991141235e-09 407.869098854858)
(6.60151123848233 -3.94907665047167e-10 412.16560613762)
(4.38912001186658 6.73928755982517e-09 418.402517002864)
(7.71674190892061 -2.78674000214383e-10 397.553065680536)
(5.09394982359788 1.45563583623113e-09 405.476456050799)
(3.16830625556087 4.71092498624409e-09 414.118109281236)
(9.19957118213269 -15.934120701702 412.913461075035)
(6.23632859707877 -10.8016342370584 414.744088204563)
(4.33534962359928 -7.50904430207174 419.658669108429)
(5.2383014101326 -9.07299926536245 407.869094741975)
(3.30075492566756 -5.71707158670608 412.165601890009)
(2.19455945473535 -3.80108679913996 418.40251334997)
(3.85837090652421 -6.68289161091868 397.553064864885)
(2.54697481429907 -4.41148717005576 405.476455235563)
(1.58415303179663 -2.74383180258763 414.118108374802)
(-2.24343302184223 -3.88573904982728 416.782295784466)
(-1.08483695562605 -1.87899333672195 410.856646900773)
(-0.506964909952019 -0.878087724538377 400.255781226448)
(-1.06883992033091 -1.85128408663349 416.370412328189)
(-0.47190073465266 -0.817357517451298 410.801031749004)
(-0.145839584845324 -0.252600220598196 400.323171819236)
(-0.805122995569503 -1.39451369878956 414.211334587807)
(-0.425741073917075 -0.737400702669117 410.344549333421)
(-0.159417957589167 -0.27611644390106 400.426198008895)
(-4.48686603414306 -1.81539576625194e-08 416.782297798113)
(-2.16967796016823 -4.75584972589861e-08 410.856645827208)
(-1.01394311699754 -3.62059448326078e-08 400.255780242328)
(-2.13768014777864 -1.60682302662122e-08 416.370414233032)
(-0.943806872418428 -7.65728585973196e-08 410.801031138208)
(-0.291692684793708 -8.75741327601318e-08 400.323178242306)
(-1.61024628833292 -1.9024994408375e-08 414.211334781122)
(-0.851480247597952 -3.08759984698665e-08 410.344549467814)
(-0.318834959357236 -4.8049350451043e-09 400.426205746946)
(-2.24343297587493 3.88573902823953 416.782295834486)
(-1.08483688088143 1.87899328315023 410.856647067963)
(-0.506965005517565 0.878087758562659 400.255781285888)
(-1.06883986846819 1.85128406131482 416.37041235829)
(-0.471900567159484 0.81735742448319 410.801031855758)
(-0.145839711112119 0.252600328650589 400.323171778847)
(-0.805122989062811 1.39451365809331 414.211334591122)
(-0.425741038022148 0.737400627133706 410.344549303261)
(-0.159417991125656 0.276116411298057 400.426197883702)
(2.24343333580766 3.88573887286685 416.782295219761)
(1.08483841068201 1.87899410428725 410.856645244771)
(0.506968560958693 0.878094526160436 400.255780191727)
(1.06884040748855 1.85128437121321 416.370411969884)
(0.471902985490484 0.81735809829117 410.80103144687)
(0.14584230202061 0.25260606246052 400.323174849758)
(0.805123771328713 1.39451365284998 414.211334696683)
(0.425735979696344 0.737400723764268 410.344551299745)
(0.159415349738677 0.276118550620136 400.42620263369)
(4.48686670771743 -8.79572160136202e-10 416.782298883529)
(2.16967296887583 -1.7685305357438e-08 410.856650324054)
(1.01393552158232 -7.13971944702805e-08 400.255784279064)
(2.13768061238492 -9.66781830283402e-10 416.370415235993)
(0.943800778485385 -3.39373853036027e-08 410.801033250891)
(0.291683690212628 -2.18908155188738e-08 400.32317853276)
(1.61024714987741 -1.50964088599901e-08 414.211335423956)
(0.851474588171516 7.25416048082344e-09 410.344550884226)
(0.318831254836388 -9.23734163236246e-08 400.426205621407)
(2.24343334887234 -3.88573887274972 416.782295214268)
(1.0848384369548 -1.87899413285631 410.85664530117)
(0.506968681706267 -0.878094800062748 400.255780325696)
(1.06884043020578 -1.85128437695329 416.370411961833)
(0.471903033743609 -0.817358069885442 410.801031504019)
(0.145842324713248 -0.25260634877342 400.323175038581)
(0.805123773632222 -1.39451369104424 414.211334697456)
(0.425735961359932 -0.737400772775405 410.344551359961)
(0.159415491911155 -0.276118716821968 400.426202789694)
(-0.170798611841223 -0.295819090840427 393.972571117914)
(-0.0224785173112801 -0.0389412082712865 394.08718619197)
(-0.0397430215094236 -0.0688419027647698 394.287677410674)
(-0.341602639762487 1.14195202268759e-07 393.972587333205)
(-0.0449860867871667 6.3919751934471e-07 394.087218628822)
(-0.0794844936010069 3.1432347057992e-07 394.287709691096)
(-0.170798435545136 0.295818741598404 393.972570383756)
(-0.0224786995024374 0.0389402069240661 394.08718460319)
(-0.0397437502923005 0.0688423728890688 394.287677643198)
(0.170789583834848 0.295812115978868 393.972578044149)
(0.0224681856546282 0.0389189835510705 394.087182786095)
(0.0397365473542284 0.0688304853240503 394.287690683034)
(0.341603453575213 1.11212846399731e-07 393.972593898128)
(0.0449866460566295 -9.58250479229093e-07 394.087218779097)
(0.0794839484981304 -6.47024825684884e-07 394.287673005425)
(0.170789136149868 -0.295811380383868 393.972577882353)
(0.0224681348718447 -0.0389170227066581 394.087180952415)
(0.0397370774164966 -0.0688302890342251 394.287689541184)
(-0.0504652967907129 -0.0873836842933546 364.840272292463)
(0.0107799737938108 0.0187024669003649 364.937322975507)
(-0.00422399326712047 -0.00733345093945775 365.093270565895)
(-0.100904660489187 9.73434735378865e-08 364.840265816803)
(0.0215889032790485 3.51362335721401e-07 364.937280651605)
(-0.00848097373114746 -1.03107270969633e-06 365.093222579383)
(-0.0504645804015629 0.0873833680729716 364.840272946634)
(0.0107795820065323 -0.0187016633125931 364.937326337083)
(-0.00422502781093081 0.00732937742886311 365.093274464167)
(0.0504392090473564 0.0873534296368432 364.840316001006)
(-0.0108099697248909 -0.0187344321953184 364.937345069288)
(0.00426618843588532 0.00733316254275443 365.093218929557)
(0.100908203859397 6.63044932644055e-07 364.840250472481)
(-0.0215968712791897 6.01948739300765e-07 364.937261281306)
(0.00850550469926134 -2.28519716373178e-06 365.093234021167)
(0.0504377822804535 -0.0873511271794233 364.840319035052)
(-0.0108118296438315 0.0187373395497482 364.937347525096)
(0.00426647223934668 -0.00733688956911992 365.093216147247)
(-0.00941938526077887 -0.0162648650162183 343.713685433956)
(0.0139884925292983 0.0244643509821824 343.804046467311)
(0.00578363885006954 0.0106136193384682 343.941513135152)
(-0.0186706312319048 1.18495942033221e-06 343.713665010798)
(0.0283742427210883 6.6514253704936e-07 343.803966915716)
(0.0109898935350734 -5.02288825165896e-06 343.941427385136)
(-0.00942948019371399 0.0162729038661985 343.713692329999)
(0.0139857908203164 -0.0244720536064178 343.80405419653)
(0.00581382420502921 -0.0106344783024226 343.94151457868)
(0.00951155756307174 0.0162978405101507 343.713860792355)
(-0.0141710901653119 -0.0248954700545465 343.804114229966)
(-0.00569524255303872 -0.00978716067278397 343.94144136283)
(0.0184931328000295 -1.12242642960996e-06 343.71351882423)
(-0.0279973587607078 -1.72620271027038e-07 343.803903077576)
(-0.0113918948914673 1.3047089253218e-05 343.941510539845)
(0.00951358118690323 -0.0163061024343656 343.713870596299)
(-0.0141824233673413 0.0249045244238909 343.804122195293)
(-0.00570414638689686 0.00979868160740625 343.941434443234)
(0.0146803336713914 0.0254291111713537 323.529704146194)
(0.0236281499501188 0.0410317469737721 323.571545606555)
(0.0140245938027984 0.02455793524118 323.634881144689)
(0.0294329830142142 7.29971618588201e-07 323.529711982368)
(0.0473956655834947 -1.23432473153946e-06 323.571574447544)
(0.0279155229050264 -6.41890560347891e-06 323.635023335012)
(0.0146763579742696 -0.0254253787838436 323.529703436804)
(0.023630568213293 -0.0410321850591373 323.571546228371)
(0.0140386294420146 -0.0245697718284956 323.634884424319)
(-0.0146510639294238 -0.0254024786073985 323.529711089823)
(-0.023683773015575 -0.0411155011448319 323.571579403245)
(-0.0140706908980033 -0.0245850851353236 323.635066532461)
(-0.0294853266494393 -6.06561928867363e-07 323.529708868504)
(-0.0472940582264337 1.63247704860092e-06 323.571515139962)
(-0.0278919482325699 6.29559008688374e-06 323.634764376852)
(-0.0146490423070764 0.0253985118815814 323.529711222964)
(-0.0236852559065044 0.0411161311301329 323.571578759478)
(-0.0140847562129921 0.024596531178113 323.63506686823)
(0.00687046681717334 0.0118978385985547 301.823204196201)
(0.0102617473857225 0.0177943863789747 301.832156703128)
(0.00679124654260976 0.0117989507113729 301.84281092919)
(0.0137560010739839 1.38754202103106e-07 301.82322132521)
(0.0205512340035481 -3.72233272130407e-07 301.832201178576)
(0.0135600966612158 -1.22312531159845e-06 301.842865119811)
(0.00686978924159689 -0.0118970102839799 301.823202932127)
(0.0102624817073752 -0.0177940698641855 301.832153814233)
(0.00679334452459163 -0.0118006407993381 301.842809024869)
(-0.00686692012063189 -0.0118934255793921 301.823191446755)
(-0.0102756300720622 -0.0178060663964989 301.832133821311)
(-0.00679360859090994 -0.011800488907979 301.84283453965)
(-0.0137636225715702 -7.08691726283249e-08 301.823231081053)
(-0.0205264377090116 4.59908416983763e-07 301.832214743404)
(-0.0135600743821996 9.11069068177624e-07 301.842828545559)
(-0.00686643642759323 0.0118926645121064 301.823190334547)
(-0.0102755395492511 0.01780584316235 301.832130798739)
(-0.00679580283280899 0.0118019752630762 301.842832850227)
(0.000224202373842628 0.000387516000725618 260.607963643364)
(0.000277460635948236 0.000479447316668209 260.608943375649)
(6.53501214223151e-05 0.000113894901691549 260.607166478811)
(0.000448036757016836 -6.33358597850091e-09 260.607958749367)
(0.000555663663757442 -1.53811461476853e-08 260.608944426945)
(0.000134219290099481 8.3436815342478e-10 260.607167246103)
(0.000224284379472212 -0.000387480225069643 260.60796392619)
(0.000277433248093909 -0.00047925452120152 260.608943220457)
(6.53871978559604e-05 -0.00011390388781337 260.607166222976)
(-0.000224727053925273 -0.000386996035708682 260.607962397625)
(-0.000277274684781008 -0.000477996631897085 260.608936980894)
(-6.61585814572039e-05 -0.000114965054902143 260.607163932723)
(-0.000447420381367778 2.20124625897361e-08 260.607958377263)
(-0.000556988934215417 1.57340906757905e-09 260.608950377067)
(-0.000128914169498449 -4.64653373390153e-08 260.607171994905)
(-0.000224652548939582 0.000386988315090852 260.607962574756)
(-0.000277162731410362 0.000477915456217912 260.608936831176)
(-6.60327555823612e-05 0.000114902768434971 260.607163825239)
(-0.000445108081566144 -0.000770478190241683 174.75617120091)
(-0.00121207030871749 -0.00209957116159977 174.758190982477)
(-0.00157315375524799 -0.00272733089874401 174.755025539449)
(-0.000890388436678265 -2.6521524874444e-08 174.756168443133)
(-0.00242656381354049 -3.95973922413598e-08 174.758185127671)
(-0.00314636900739658 2.84844683999209e-08 174.755020614932)
(-0.00044504391678729 0.000770473029045994 174.756171398512)
(-0.00121192935846766 0.00209951475600743 174.758191366427)
(-0.00157317739649155 0.00272743138027164 174.755025699356)
(0.000444702450399645 0.000770360167760739 174.756172493172)
(0.00121174658520888 0.00209977178972146 174.758193439797)
(0.00157402817178443 0.00272832586469487 174.755024661473)
(0.000891046613746614 2.47100602314076e-08 174.756167107296)
(0.00242720820903393 3.34653732052518e-08 174.758183715955)
(0.00314699855556891 -4.62487922850618e-08 174.755023482025)
(0.000444696983911912 -0.000770347170284648 174.756172611227)
(0.00121173243221637 -0.00209970551366513 174.758193806826)
(0.00157421697971731 -0.0027284433247436 174.75502484972)
(0.0033274965472009 0.00576348480524738 60.056378991215)
(-0.00117473704379691 -0.00203462940002907 60.0397054906462)
(0.000146520424858137 0.000253890700084971 60.0268144789119)
(0.00665499784860665 -1.26082216912611e-08 60.0563811118363)
(-0.0023500312771037 -1.71466023005394e-08 60.039704612406)
(0.000291305406542699 -1.15540544302645e-08 60.0268120775986)
(0.00332750749808658 -0.00576347558786587 60.0563788893676)
(-0.00117470190793464 0.00203461038505796 60.0397055640618)
(0.000146555833727741 -0.000253953819968746 60.0268146217792)
(-0.0033275636699896 -0.00576354140039657 60.0563789886167)
(0.00117464780084925 0.00203456738094406 60.0397068743431)
(-0.000145667883109199 -0.000253895102639381 60.0268151697555)
(-0.00665485916269933 9.58290723451791e-09 60.0563819096792)
(0.00235022125553012 1.3012472032148e-08 60.0397041952826)
(-0.000291661208862116 -2.33197282886641e-08 60.0268121718232)
(-0.00332756875157628 0.00576353400999961 60.0563788977335)
(0.00117463234320736 -0.00203455907658463 60.0397069410592)
(-0.00014571193755911 0.000253990001283702 60.0268153000887)
(-9.98939318583752 -17.3021324794769 394.242633478873)
(-5.23057195960115 -9.05961117422793 379.394899126653)
(-3.68229182881274 -6.37791391964478 366.00634475142)
(-19.9787867893085 -3.46661160222193e-10 394.242640360063)
(-10.4611451609922 5.09440768204138e-10 379.394902258077)
(-7.36458344285129 -8.42557896638773e-10 366.006345279624)
(-9.98939318518863 17.3021324791543 394.242633481689)
(-5.23057196024499 9.05961117549922 379.394899127042)
(-3.68229183011516 6.37791391692198 366.006344749528)
(9.98939318394768 17.3021324791944 394.242633487259)
(5.23057195839613 9.05961117549953 379.394899131)
(3.68229183037924 6.37791391426866 366.006344750646)
(19.9787867872685 6.56282593625532e-10 394.242640360331)
(10.4611451589653 -8.53529624499599e-10 379.394902258947)
(7.36458344287371 -1.14738129024946e-09 366.00634528562)
(9.98939318406252 -17.3021324801201 394.242633495009)
(5.23057196039863 -9.05961117568057 379.394899137832)
(3.6822918311915 -6.37791391995861 366.006344754078)
(-7.66395855711032e-07 -1.3274372462693e-06 3.10984970936888e-07)
(-9.45917330810012e-08 -1.63838244844068e-07 -1.13820164098773e-06)
(-2.08655979588848e-08 -3.61410521608301e-08 -1.71199457334482e-07)
(-3.25945850258382e-09 -5.64710982356838e-09 -7.00775791585048e-09)
(-1.98842572833533e-10 -3.45906401187861e-10 -2.25777128943607e-10)
(-9.80250262403062e-13 -2.58038668990889e-12 -2.34821090637703e-12)
(6.13885695079423e-13 4.492188960208e-13 3.50071782272484e-14)
(6.32396529850973e-13 2.15733571379442e-13 -8.31451499026864e-14)
(6.90830337391027e-13 4.98698936879357e-13 -2.70579917351167e-13)
(5.85454643081322e-13 4.11857911613865e-13 1.66879031912094e-13)
(3.91621771303376e-13 1.70480157915482e-14 9.38160563564983e-14)
(4.94322800431611e-13 2.66045270603555e-13 4.42095841067043e-14)
(4.7303768281456e-13 1.87039331775305e-13 1.16215503102432e-12)
(2.9565147984945e-13 -3.33324736490789e-13 1.41299368658848e-12)
(1.98380808595962e-13 -3.16682328471524e-13 -1.26051118005602e-13)
(7.98230929498573e-05 0.000138257659231401 2.60023671872212e-05)
(5.95704525071232e-05 0.000103179055091509 4.33563276464437e-05)
(3.73198942691068e-06 6.46399438287758e-06 6.76998088375689e-06)
(-3.64283795083412e-08 -6.30984565838801e-08 -1.96218758573443e-08)
(-6.52831613755767e-09 -1.13093530824897e-08 -1.15610222645798e-08)
(-8.04865721321182e-11 -1.40657969874164e-10 -2.09852283944258e-10)
(8.96018250386252e-13 9.08962794397438e-13 -3.32722885510515e-13)
(1.14190065927835e-12 1.30629515696946e-12 1.16393326591142e-14)
(8.8357033346716e-13 8.53188307524235e-13 2.79681222431041e-14)
(9.09313536046121e-13 1.01972466741837e-12 1.92342482374739e-13)
(7.71519996134793e-13 9.5868220111147e-13 1.06116883085766e-13)
(8.13063062931138e-13 8.35790984345984e-13 1.06614304017733e-13)
(6.2939672864098e-13 5.5156313984749e-13 9.25877231711842e-13)
(8.09454986165028e-13 9.42540840607797e-13 1.10584567297299e-12)
(5.92008522867174e-13 6.77287885635806e-13 -6.71060555850649e-14)
(0.00554093553945461 0.0095971823813867 0.00439673798365797)
(0.00157591825915882 0.00272957063271049 0.0022512711237763)
(2.19154942024584e-05 3.7958750276932e-05 6.6813610445483e-05)
(-2.05742541937557e-07 -3.56358305938109e-07 -1.69778222507737e-07)
(-3.6579076728368e-08 -6.33584440788453e-08 -7.97462136937393e-08)
(-5.17550207014729e-10 -8.9783163961891e-10 -1.83176842925269e-09)
(1.1067417344419e-12 8.65697085774351e-13 -1.64936731395475e-12)
(1.21658795567618e-12 1.05579479400943e-12 9.77237806887999e-14)
(1.37976301353665e-12 1.34472444297415e-12 -5.67676245804652e-14)
(1.40467140617227e-12 1.60696000847011e-12 5.34840631852029e-14)
(1.46874411411607e-12 1.81723326925661e-12 1.49028404882374e-13)
(1.3496919830668e-12 1.29468037786662e-12 2.51231568824115e-13)
(1.21534493081257e-12 1.15171444517514e-12 9.51369608740474e-13)
(1.4774280745241e-12 1.7312491617108e-12 1.3498605614506e-12)
(1.27936097807982e-12 1.53844731820674e-12 8.73794088584375e-14)
(0.147458951572437 0.255406411277458 0.235276832345117)
(0.00602356628439977 0.0104331234016005 0.0203300686675837)
(1.02820547048917e-05 1.78090417798291e-05 0.000107420355856998)
(-6.76587651823425e-07 -1.17188557964161e-06 -1.06760811529955e-06)
(-7.014572939853e-08 -1.21497300705649e-07 -2.61479997012531e-07)
(-4.74437982690129e-10 -8.22952931883952e-10 -4.1843228180536e-09)
(8.92894984975294e-13 3.22531491850218e-13 -3.13539591438264e-12)
(1.07463860068147e-12 6.20685472592369e-13 -1.4406693617263e-13)
(1.04430783056512e-12 7.46236371051688e-13 -8.38721358274908e-14)
(8.54440921034041e-13 5.67174722206068e-13 7.29818544823402e-14)
(9.47786151431871e-13 4.16171881703437e-13 1.97372538929663e-13)
(9.22436146886414e-13 2.70038417282367e-13 4.40586568071415e-13)
(8.19085797574296e-13 6.16440089392838e-13 6.72067656713402e-13)
(1.01825320793491e-12 1.25679504436705e-12 7.30146847921397e-13)
(1.1533607596973e-12 1.39922120026666e-12 6.22821635254489e-13)
(-1.53279062537655e-06 -2.1749101011861e-13 3.10984489037482e-07)
(-1.89182786736278e-07 -7.00949773999834e-14 -1.13820030942283e-06)
(-4.17315048166469e-08 -5.24061794510827e-14 -1.71197868512071e-07)
(-6.52103945805508e-09 6.19614261328498e-14 -7.0065641722855e-09)
(-3.99106421121122e-10 2.20463722703278e-13 -2.25226818364034e-10)
(-2.85106535970848e-12 2.75764005694424e-14 -1.55800918825292e-12)
(6.11684805831795e-14 -6.40448350412482e-14 1.89767158812588e-13)
(4.2980149942711e-14 9.40257532256101e-14 9.0041746692322e-14)
(2.64895554246501e-14 -7.13523651216722e-14 1.56724234327575e-14)
(6.4839756427702e-14 -1.87726598040252e-13 -9.53212006293149e-14)
(4.37786712905461e-14 -2.07953468544355e-13 -1.60861195604383e-13)
(7.17030845499373e-14 -1.52325473111629e-13 -5.40650294017988e-13)
(9.28168699104598e-15 -1.88881812302759e-13 1.96231607675837e-13)
(-7.79623816459268e-14 -1.16755828645703e-14 7.69321434081985e-13)
(-5.60850186788799e-14 -1.1752174984661e-13 -2.70086825758337e-13)
(0.000159646179432017 -7.29528029632842e-14 2.6002363756633e-05)
(0.00011914090078749 3.84598509670039e-14 4.33563252147383e-05)
(7.4639796622563e-06 -2.18277048723555e-14 6.76998107743188e-06)
(-7.28551813503872e-08 7.84713127631889e-14 -1.96224951889522e-08)
(-1.30549942079486e-08 1.91961173177496e-13 -1.15609212984373e-08)
(-1.58825543405713e-10 2.06095703436619e-13 -2.09424480582484e-10)
(4.17504026511136e-12 -1.96475432690301e-14 1.23271694886502e-14)
(4.35991397885065e-12 -1.20503636923301e-14 6.17343742667234e-14)
(4.26761434876085e-12 -3.48912881150799e-14 3.27721277629332e-15)
(4.25753480065157e-12 -1.15021753392826e-13 -1.18507362300533e-14)
(4.02618178142839e-12 -1.02332649743721e-13 -4.15968090547082e-14)
(3.89239596379915e-12 -7.24718818113062e-14 -2.66688328972923e-13)
(3.09578684438833e-12 -1.22896349096833e-13 2.47037259255095e-13)
(3.12455204793621e-12 -1.84225693249407e-14 7.49674773655307e-13)
(2.83644900180133e-12 -1.53403637809698e-13 -3.59034307975198e-13)
(0.011081871062006 -1.041425150053e-12 0.00439673781959815)
(0.00315183656745843 -2.25144939549647e-13 0.00225127109077915)
(4.38309901204689e-05 -8.5039763748663e-14 6.68136117828464e-05)
(-4.11485264272241e-07 1.72235412058339e-13 -1.69777644101753e-07)
(-7.31579908740676e-08 2.06367558129451e-13 -7.97460948686471e-08)
(-1.03422799624868e-09 2.46629253351267e-13 -1.83144462272933e-09)
(4.20771471201635e-12 5.58801910230796e-14 -1.68141007169317e-12)
(4.88280937408849e-12 -5.00229506558826e-14 1.85979652113381e-14)
(4.82629182541041e-12 -9.0996028089998e-14 5.91029721127446e-14)
(4.86845077094559e-12 -1.22950476652645e-13 1.5379003942384e-13)
(4.67488921927438e-12 -1.01277856320074e-13 2.32506392110172e-13)
(4.63470689247457e-12 -7.15717509351317e-14 1.19490501475405e-13)
(3.99229307909609e-12 -7.97318117876791e-14 4.76616026916155e-13)
(3.92872676056336e-12 7.85692609982302e-14 9.76235969684865e-13)
(3.80025188008933e-12 8.93450279045252e-14 -9.9247609388054e-14)
(0.294917925266795 1.358219086172e-11 0.235276835905043)
(0.0120471332932504 6.95531616381705e-13 0.0203300690974705)
(2.05641118531797e-05 -2.17815955633731e-13 0.000107420359596445)
(-1.35317498217961e-06 1.24097528657305e-13 -1.0676082677039e-06)
(-1.40291469434197e-07 1.95516522175472e-13 -2.61480277446977e-07)
(-9.48735933494891e-10 1.25073379899883e-13 -4.18407411508159e-09)
(2.29965498300831e-12 9.63083086926048e-14 -3.2159278004948e-12)
(2.57635121579699e-12 -5.17717535822217e-14 -4.7035160883482e-15)
(2.76209793849753e-12 -7.15219322187037e-14 2.01802714951317e-14)
(2.65587655481367e-12 -1.50244056596256e-13 1.69996658893103e-13)
(2.48887436434287e-12 -1.23743016597221e-13 2.22031450886579e-13)
(2.55479931999112e-12 -8.23171139787597e-15 1.38848918333938e-13)
(2.22152207445593e-12 -4.89547271236009e-14 4.30368945891841e-13)
(2.32240760448689e-12 -1.19488492290839e-13 8.68000005731401e-13)
(2.08576710477434e-12 -4.17945972292446e-14 2.94270447122452e-13)
(-7.663956441253e-07 1.32743706664116e-06 3.1098457325485e-07)
(-9.45914980467959e-08 1.63838131598148e-07 -1.13820126361844e-06)
(-2.08655623001368e-08 3.61412071971409e-08 -1.71199657962656e-07)
(-3.25938924798658e-09 5.6471520642462e-09 -7.00843455846829e-09)
(-1.98851341279461e-10 3.45568366976699e-10 -2.25185024861572e-10)
(-5.2543296994657e-13 2.16662482018112e-12 -1.64313156413293e-12)
(5.66019410164563e-13 -1.4541218290427e-13 -3.8505831471281e-14)
(4.54263505604882e-13 -6.20877851891231e-14 -5.09717748462296e-14)
(6.0806379324982e-13 -2.50141480529008e-13 1.59970478628695e-13)
(4.03032382978871e-13 1.2827957476944e-14 4.6330226496929e-13)
(2.9837688102142e-13 2.63346563612497e-13 5.44596744606722e-14)
(3.63557095285433e-13 1.15205768028167e-13 -1.44138268873405e-13)
(3.29204027318483e-13 1.98616021969934e-13 9.18455273707676e-13)
(1.80783824407672e-13 1.70722914936268e-13 1.41363427840078e-12)
(1.77452332369082e-13 2.01908099631811e-13 -1.25075360683954e-13)
(7.98230925232754e-05 -0.000138257658806731 2.60023667410578e-05)
(5.95704521663689e-05 -0.000103179054527773 4.33563275877345e-05)
(3.73198942800853e-06 -6.46399427250281e-06 6.76998066804772e-06)
(-3.64284705754615e-08 6.30988488821146e-08 -1.96221983670812e-08)
(-6.52874101484755e-09 1.13097242795177e-08 -1.15616142885742e-08)
(-8.01971679662229e-11 1.40459416599792e-10 -2.09215437148931e-10)
(1.09647730167125e-12 -1.10821458115211e-12 2.09010716459025e-14)
(9.91986923383763e-13 -1.02506856961544e-12 7.92756821951469e-17)
(9.44697964432867e-13 -9.34864997400955e-13 7.01588417574978e-14)
(1.03256329043027e-12 -1.23219214875965e-12 3.39789165790955e-13)
(9.93918019296183e-13 -1.30462093476561e-12 3.64747317548639e-14)
(8.87523719661267e-13 -1.03740133643247e-12 3.41443776302526e-14)
(7.74850420718728e-13 -8.10585504660316e-13 7.9948850990041e-13)
(9.48311148995804e-13 -1.40416137024919e-12 1.02854954271527e-12)
(1.00206563435872e-12 -1.38275208358416e-12 -6.47854199720735e-14)
(0.00554093552110399 -0.00959718235406738 0.00439673797881199)
(0.00157591825497986 -0.00272957062665261 0.00225127111879409)
(2.19154941917068e-05 -3.79587500387061e-05 6.68136098172398e-05)
(-2.0574257927989e-07 3.56358361177456e-07 -1.69778437559542e-07)
(-3.65794886676404e-08 6.33586982679512e-08 -7.97466121358273e-08)
(-5.18119074910993e-10 8.99092815932452e-10 -1.83143323740044e-09)
(1.26551914521801e-12 -9.69017154614769e-13 -1.43294689219419e-12)
(1.54644906381469e-12 -1.46773063979047e-12 1.41848319432564e-13)
(1.38979138748881e-12 -1.26525661096426e-12 -2.19149927004592e-14)
(1.55505626744735e-12 -1.63492841759978e-12 1.91527420010116e-15)
(1.63962622292281e-12 -1.99722745152403e-12 6.13132432583245e-14)
(1.42153967316732e-12 -1.44909058872922e-12 2.21582589727436e-13)
(1.31757893037033e-12 -1.43816930819178e-12 7.7650899208572e-13)
(1.22424969282016e-12 -1.68810563651662e-12 1.00001035094644e-12)
(1.1730177480151e-12 -1.8199667520043e-12 2.07480954946484e-13)
(0.147458951017477 -0.25540641048036 0.235276831913932)
(0.00602356626835425 -0.0104331233835188 0.0203300686286293)
(1.02820550914593e-05 -1.78090418564954e-05 0.000107420355376002)
(-6.76587963843563e-07 1.17188604280761e-06 -1.06760815061287e-06)
(-7.01461052360155e-08 1.2149759518703e-07 -2.61479985814458e-07)
(-4.74500006314203e-10 8.23425340137292e-10 -4.18435780224735e-09)
(9.75544473842023e-13 -1.81769165345187e-13 -2.82735504473466e-12)
(1.18409335031056e-12 -7.83708427509933e-13 4.02943604273669e-14)
(1.25534855629875e-12 -1.00709864576746e-12 4.13859728992806e-14)
(1.10960956599593e-12 -6.57912693334435e-13 1.30215849652404e-13)
(1.07544962749483e-12 -3.83506382612975e-13 2.77697638628795e-14)
(9.54060623566841e-13 -4.62057184600001e-13 3.2563535475927e-13)
(8.12714212137143e-13 -7.58809477396056e-13 7.57867965119708e-13)
(7.68552848442638e-13 -8.84424737086852e-13 6.50944382570426e-13)
(5.7909548630943e-13 -7.57674170482433e-13 6.27606507094494e-13)
(7.66396081126333e-07 1.32743726395157e-06 3.10984832941421e-07)
(9.45918004562298e-08 1.63838362496751e-07 -1.13820180460119e-06)
(2.08656568101902e-08 3.61410734985994e-08 -1.71199740817997e-07)
(3.25947214028442e-09 5.64716637417945e-09 -7.00778490185449e-09)
(1.98918415478646e-10 3.45822497429566e-10 -2.25760486159358e-10)
(5.88137697875382e-13 1.93870874657998e-12 -2.12508590547387e-12)
(-6.22371766848782e-13 -5.22763569092672e-13 2.095626375028e-13)
(-6.8174155586386e-13 -4.34791794473813e-13 5.84494961619046e-14)
(-6.51402737241205e-13 -4.50309008210124e-13 1.05346950341051e-13)
(-5.00930750714075e-13 -1.82181932864034e-13 7.00747703451126e-13)
(-3.05684425393802e-13 2.35475691709276e-13 1.3475454289863e-13)
(-3.46462667796787e-13 1.13123393412694e-13 -3.52140936613991e-13)
(-3.25485489240109e-13 -9.0552549392654e-14 9.07999284684548e-13)
(-2.50258753201307e-13 3.16914147170698e-13 1.61810174110524e-12)
(-2.07918921048448e-13 2.66774161156939e-13 -1.04300906609541e-13)
(-7.98230861298698e-05 -0.000138257648842387 2.60023660886996e-05)
(-5.95704483739257e-05 -0.000103179048609173 4.335632450804e-05)
(-3.73198906627736e-06 -6.46399398081249e-06 6.76998024273276e-06)
(3.6428774428041e-08 6.30991352383203e-08 -1.96215372412295e-08)
(6.52864221368323e-09 1.13096990032747e-08 -1.15620329469272e-08)
(8.02896878540095e-11 1.40381565481147e-10 -2.09337960916023e-10)
(-8.9085203394761e-13 -9.74096555680211e-13 -3.27959011171022e-14)
(-1.00323966193051e-12 -1.19159004606333e-12 1.37498910813989e-13)
(-8.81899090901299e-13 -8.94342776636934e-13 2.00721493659141e-13)
(-1.05415087637706e-12 -1.26651127232584e-12 4.421355452508e-13)
(-1.02417167538321e-12 -1.33692176074545e-12 1.74380215426872e-13)
(-9.45420551524158e-13 -1.04674288910731e-12 9.96258957864761e-16)
(-5.92261440634071e-13 -5.97703779801051e-13 7.97831795809865e-13)
(-8.93902494709878e-13 -1.09696612316111e-12 1.25241538530737e-12)