/*--------------------------------*- C++ -*----------------------------------*\
  =========                 |
  \\      /  F ield         | OpenFOAM: The Open Source CFD Toolbox
   \\    /   O peration     | Website:  https://openfoam.org
    \\  /    A nd           | Version:  11
     \\/     M anipulation  |
\*---------------------------------------------------------------------------*/
FoamFile
{
    format      ascii;
    class       volScalarField;
    location    "0.0000900086";
    object      Ma;
}
// * * * * * * * * * * * * * * * * * * * * * * * * * * * * * * * * * * * * * //

dimensions      [0 0 0 0 0 0 0];

internalField   nonuniform List<scalar> 
900
(
0.802645869127505
0.801894405783178
0.799630412927536
0.802484681647368
0.801772086289139
0.799558403499611
0.802197307478264
0.801536261631846
0.799383978952793
0.802645734502808
0.801891826270918
0.799631335431326
0.802485191931079
0.801771070564701
0.799560326211328
0.802197471713421
0.801535868741615
0.799383868174118
0.802645866791494
0.801894390160389
0.799630374487791
0.802484679613852
0.801772072772772
0.799558372427834
0.802197306675867
0.801536256291408
0.799383972736421
0.80264574808718
0.80189186997242
0.799631449212144
0.802485204944325
0.801771113102238
0.799560406694869
0.802197479759311
0.801535896869319
0.799383929001815
0.802645892264167
0.801894516261815
0.799630700256006
0.802484701298285
0.801772182528577
0.799558634325719
0.802197316377982
0.80153630269822
0.799384047336892
0.802645748431063
0.801891875210516
0.799631458028561
0.802485205272861
0.801771117852254
0.799560413279624
0.802197480161441
0.801535900092351
0.799383934617685
0.798127613448612
0.797966951000272
0.803089959389145
0.798090024646759
0.797964758767979
0.80309359374945
0.797985783990724
0.797919520474343
0.803070036774311
0.798126931450011
0.797965965200344
0.803085891864297
0.798090596021703
0.797964831844615
0.803093341583467
0.79798572597605
0.797919305774232
0.80306911753295
0.798127496395502
0.79796675388638
0.803089803821551
0.798089946490871
0.797964663232088
0.803093562366268
0.797985738782948
0.797919464340248
0.803070009028677
0.798127198444628
0.797966282906425
0.803086247412379
0.798090938012219
0.797965392705274
0.803093830272809
0.797985849545841
0.797919337269164
0.803069017955091
0.798128557557239
0.797968085073767
0.803090746550988
0.798090664201476
0.79796523308906
0.803093645384363
0.797986098130942
0.797919775590678
0.803070060056822
0.798127212106819
0.797966323771083
0.803086320851927
0.798090967466194
0.797965481845222
0.803093927802533
0.797985862628915
0.797919350247715
0.803069015342126
0.816339238243752
0.816343470674022
0.816350393996977
0.816333588165535
0.816343907563599
0.816352393849338
0.81633911476753
0.816343465009624
0.816350480432291
0.816333551569585
0.81634409007931
0.816352189368565
0.816339850013245
0.816343426732732
0.81634995900399
0.816333554060894
0.816344134280296
0.816352148078235
0.833685895813762
0.833693398280429
0.833705258729535
0.833681584371524
0.8336924718376
0.833705386574682
0.833685875615489
0.833693419463531
0.833705265208838
0.833681510990942
0.833692492314308
0.83370550822465
0.833685984925175
0.833693274465016
0.833705262602188
0.833681498704888
0.833692494688746
0.833705527954792
0.853145212009332
0.853153702637242
0.853166711599611
0.853149733213714
0.853152997239055
0.85316386658109
0.853145225630292
0.853153721907396
0.853166708476207
0.853149849477637
0.853153120925791
0.853163993341578
0.853145134960616
0.853153608398771
0.853166759443237
0.853149867557788
0.853153140658047
0.85316401334183
0.875214207685387
0.87521527229303
0.875234492779556
0.875209971435075
0.875217021511506
0.875231809909878
0.875214215120379
0.875215277395458
0.875234494686819
0.875209978279875
0.875216980478348
0.87523177493418
0.875214161559481
0.8752152423022
0.875234473399681
0.875209980053188
0.875216971836112
0.875231765472634
0.900962042002013
0.900964269592241
0.900963032292719
0.900963440476166
0.900958196918811
0.900955698285254
0.900962057947976
0.900964282328371
0.900963055775187
0.900963550710709
0.900958190318771
0.9009555335451
0.900961951021232
0.900964197808462
0.900962899822958
0.9009635688133
0.900958187213199
0.900955508073323
0.934204793190677
0.934247427852674
0.934248400554518
0.934185303343222
0.934223286804238
0.934248552548464
0.934204813275757
0.934247440040981
0.934248416178918
0.934185192193786
0.934223129062229
0.934248355420662
0.934204686108106
0.934247365761155
0.934248326433231
0.934185171661342
0.93422309992201
0.934248318003927
0.972582643576254
0.972666449821736
0.972735530067562
0.972640970443994
0.972697261700475
0.972740793447029
0.972582656214912
0.972666460245027
0.972735542758906
0.972640831828802
0.972697130732297
0.972740668101674
0.972582576335209
0.972666394126592
0.972735463082488
0.972640806256073
0.972697106497358
0.972740645122799
1.02575514917821
1.025603531936
1.02543342187269
1.02566551554975
1.02554690205371
1.02543436708992
1.02575515868982
1.02560354110617
1.02543343027725
1.02566542554957
1.02554682300257
1.02543429275335
1.02575509771994
1.02560348202278
1.02543337679442
1.02566540903387
1.02554680847257
1.02543427929966
0.799131536533939
0.798864482733736
0.798482814314427
0.799131753405093
0.798864807039491
0.798482980688684
0.799131536166569
0.798864482302969
0.798482814082448
0.79913175939829
0.798864813342414
0.798482984995467
0.799131542193043
0.798864488414167
0.798482817818521
0.799131759229547
0.798864813290054
0.798482985113119
0.0972410750817603
0.054567799731705
0.180538147579363
0.23669205532468
0.306194739108858
0.32771132539712
0.327220717527041
0.370430287030524
0.373564797175409
0.396043013255511
0.717374182930913
0.71339038617645
0.484783628948396
0.161342194838173
0.0151889321142264
0.126389915834385
0.552013684180883
0.646602514672281
0.592075162733924
0.558589709495831
0.536055065402589
0.582088161522074
0.703575110952088
0.723752338831833
0.610185111228401
0.490288485433431
0.607108188300561
0.434227484343057
0.196131814424027
0.0366435999447337
0.559541521796156
1.79203414732634
1.50069246383103
1.15331281543603
0.973466106984498
0.889530784088947
0.989431654068936
1.11509700144779
1.19902731947679
1.16293061166139
0.709623335571092
0.650179353873949
0.540266703498344
0.29409045313521
0.0789511415546049
2.2161129166564
3.36448232447648
2.59589598884333
1.90905737547492
1.46244938027402
1.23510411485599
1.35772277130341
1.48046222989946
1.6628579184982
1.66655172340858
1.1671800776673
0.666357553747269
0.645987219512017
0.396769807207201
0.134645830703573
0.049845311879803
0.187195652974101
0.328076452682178
0.370218236842135
0.384666408907765
0.361862754507034
0.344674367277454
0.354205654804757
0.339244656182327
0.315051990069866
0.710728103147696
0.707158642895655
0.48240985010328
0.165021012267776
0.0158556797615308
0.14330020669582
0.625526874365234
0.722809952034851
0.712988943789768
0.638244434166868
0.591210024093171
0.621575058996566
0.70015353041507
0.739154541044452
0.629342697841082
0.506874076639965
0.610853874695428
0.430715118525161
0.195690431085644
0.0385266051920802
0.710930364837338
1.45554830263844
1.33609144862742
1.15566966153496
0.975459361654543
0.92957701997428
0.993770766882952
1.11313660282812
1.21505978856047
1.23621239226485
0.725583127311002
0.659730988902582
0.541311085368977
0.290318684284755
0.0807807233925014
1.71021047840544
2.64683528096202
2.10594193739032
1.80174456760215
1.39544555696655
1.22181376645988
1.31762669667342
1.45747017030717
1.66408501120145
1.73082967481934
1.25236835650844
0.690121699924008
0.651246723196311
0.394716906933483
0.134728117872573
0.0972410814806179
0.054567739806034
0.180538005747027
0.236691971450159
0.306194693301756
0.327711286409745
0.327220668924186
0.37043013954865
0.373564607094567
0.396042834673086
0.717374147495389
0.71339034750644
0.484783602934549
0.161342184324677
0.0151889314769124
0.126390036990168
0.552013509497561
0.646602384611072
0.592074997053547
0.558589562821578
0.536054964504207
0.582088048103825
0.703574926098002
0.723752143740156
0.610184928703962
0.490288478299806
0.607108176006072
0.43422747140766
0.196131811234163
0.0366435988062435
0.559541444749219
1.79203380768706
1.50069231191032
1.15331270103656
0.973465939059553
0.889530627801284
0.98943145412903
1.11509675283556
1.1990270918842
1.16293036120724
0.709623091758642
0.650179318073158
0.540266692888764
0.294090449816046
0.0789511403334918
2.21611298528923
3.36448171998647
2.59589564851813
1.90905726549834
1.46244919390938
1.23510386851515
1.35772257857131
1.48046200829681
1.66285767249784
1.66655156979295
1.16717995058555
0.666357494578553
0.645987217824757
0.396769804900758
0.134645829460437
0.0498448609931915
0.187196240761152
0.328076551004945
0.370218603421251
0.384666908467939
0.361863298233604
0.344674599400399
0.354206758448246
0.33924594254131
0.315053239709757
0.710728396373883
0.707159037383844
0.482410047532089
0.165021060521579
0.015855687149991
0.143301859752791
0.625527829104428
0.722810590942799
0.712989963445428
0.63824553330881
0.591211091375248
0.621575735403147
0.700154992745599
0.739156149279598
0.62934487880978
0.506874079124679
0.610854012864802
0.430715262223623
0.195690475451066
0.0385266166679431
0.710932933182195
1.45554873002107
1.33609394535254
1.15567159267058
0.975461088760027
0.929578640041045
0.993772299013876
1.11313809488532
1.21506102346015
1.23621357554069
0.725584676398872
0.659731210982842
0.541311211824782
0.290318724776049
0.0807807363242022
1.71021045287509
2.6468344830623
2.10594732685121
1.80174862001471
1.39544838671221
1.2218159665211
1.31762824944361
1.45747169949998
1.66408577798085
1.73083031062833
1.25237035356723
0.69012196000479
0.651246716386583
0.394716919650429
0.134728124297477
0.0972410443156056
0.0545682293816487
0.180539100386034
0.2366928713423
0.306195227029641
0.327711753643754
0.327221198484944
0.370431739988382
0.37356661325247
0.396044665541493
0.717374487838641
0.713390673554473
0.48478381664864
0.161342262390616
0.0151889324641434
0.126389219044482
0.552014686482888
0.646603377414516
0.592076450454877
0.55859089947068
0.536055914053728
0.58208922789628
0.703576921715801
0.723754263672393
0.610186623669686
0.490288519796976
0.607108255885286
0.434227552376551
0.196131825440466
0.0366436053665247
0.559541779031965
1.79203605219796
1.50069348038923
1.15331344522979
0.97346739363652
0.889532066309157
0.989433572952819
1.11509942760852
1.19902961260189
1.16293298160225
0.709625564965151
0.650179664694753
0.540266761888672
0.294090462230469
0.0789511439362073
2.2161125909092
3.36448603700925
2.59589848218745
1.90905791116729
1.46245078784738
1.23510617539509
1.35772460483097
1.48046435908173
1.66286030921194
1.66655333036394
1.16718128241982
0.666358066678885
0.6459872060016
0.396769807677996
0.134645832658511
0.0498448167892982
0.187196319241773
0.328076570996064
0.370218652595922
0.384666963969255
0.361863351117849
0.3446746255571
0.354206871379423
0.339246068603279
0.315053348151404
0.710728418219446
0.707159071985868
0.482410069626303
0.165021068217728
0.0158556877546334
0.143302045795078
0.625527964880565
0.722810701987589
0.712990108043443
0.638245678768706
0.591211223336037
0.621575824171494
0.700155147756647
0.739156305474371
0.629345053762547
0.506874072337657
0.610854019344513
0.430715275746633
0.19569048155934
0.0385266180604678
0.710933235057016
1.45554884310537
1.33609428409474
1.15567185300592
0.975461312774553
0.929578838856213
0.993772476907381
1.11313824039943
1.21506113538083
1.23621367727958
0.725584801288711
0.659731223944587
0.541311221824402
0.290318731136366
0.0807807387913802
1.71021044084143
2.64683449832019
2.1059480072968
1.80174914812534
1.39544873697491
1.22181623691458
1.31762841883308
1.45747185466435
1.66408583984955
1.73083037992808
1.25237056194279
0.690121981065603
0.651246714237851
0.394716922195671
0.134728126870521
1.72629426885663
2.72119615272718
3.34956606372691
2.58180115566874
1.96666849826036
1.52687108156615
1.60207531310968
1.77221817672016
1.99527798540854
2.00555657533108
1.6018496710136
0.934132584906712
0.765148286513436
0.489344784050029
0.182445315711583
1.55388579804493
2.37158954952899
3.22364540532723
3.00069852943353
2.22821730353761
1.75930450212795
1.82342414577385
1.9685952368384
2.15816329929871
2.16455628536442
1.81497196523871
1.06270267978092
0.812704377506348
0.546032485051016
0.21853398165479
1.45687374984789
2.15502619662554
3.03645038165599
3.23283025735897
2.32113123333536
1.91301972470416
1.97142336188405
2.11055362065813
2.27198653212143
2.26364734560045
1.93245139825635
1.16615632783167
0.896879453260704
0.601562152314526
0.24380922871948
1.5983083382828
2.30818340568824
2.93839817850102
2.34844580874341
1.90329843825585
1.46430724403052
1.55920738120537
1.72568346082447
2.01168134474118
2.03690590201011
1.66677978590497
0.94666876391998
0.76575578988562
0.48824398238669
0.181661576369649
1.49269303265767
2.17489608420363
3.01087013135391
2.76777886540961
2.21172278674967
1.72909826118339
1.82879968510311
1.9696412927585
2.16615726117445
2.17791985290258
1.84890222177161
1.07838924338359
0.800238856062574
0.542933196668423
0.217787606594223
1.44967502789047
2.10638809722601
3.01988891454627
3.13805451633094
2.33068536168231
1.91693713867653
1.9761702157883
2.12258413943381
2.27194804520136
2.26910264352723
1.93442739817253
1.17537948704778
0.896043559699984
0.600554258788578
0.243149895824776
1.72629431336802
2.72119629830742
3.34956605117794
2.58180096366832
1.96666836470518
1.52687080698229
1.60207517991608
1.77221799190177
1.99527779143012
2.00555650153431
1.60184964264458
0.934132570571125
0.765148288901168
0.4893447840887
0.182445315036058
1.55388583696837
2.37158963492103
3.22364542179349
3.0006983365384
2.22821728270783
1.75930429309959
1.82342400570747
1.96859512204044
2.15816323118415
2.1645562423572
1.81497197708944
1.06270268852556
0.81270438724256
0.546032488014566
0.218533981373006
1.45687375881569
2.15502621374339
3.03645035435263
3.23283012808098
2.32113100785681
1.91301962353267
1.97142329312318
2.1105535784762
2.27198653151358
2.26364735352414
1.93245140384652
1.16615634469066
0.896879462363102
0.6015621549391
0.243809228141703
1.59830813974262
2.30818294112211
2.93840081668857
2.34845126657517
1.90330115814346
1.46430982960579
1.55920910097503
1.72568579314189
2.01168227117747
2.03690679916009
1.66678065656667
0.946669206358044
0.765755764041783
0.488243967527831
0.181661572355527
1.49269287763138
2.17489588543506
3.01087114089635
2.76778326722865
2.21172383644288
1.72910043800152
1.82880137890808
1.96964325325377
2.16615823396391
2.17792067409792
1.84890268223047
1.07838921877704
0.800238638970043
0.542933123295998
0.217787594324217
1.44967496570556
2.10638792171068
3.01988983422913
3.13805607600519
2.33068754046764
1.91693806957192
1.97617078825176
2.122584769959
2.27194819345281
2.26910270412426
1.93442743228851
1.17537933541197
0.89604347513369
0.600554227479957
0.243149885477595
1.72629401169262
2.72119527597268
3.34956609977103
2.58180217206069
1.96666953597266
1.52687350195968
1.60207657865256
1.77221989880079
1.99527985361839
2.00555733292275
1.60184990683644
0.934132692785715
0.765148240318681
0.489344768033664
0.182445313398326
1.55388557481082
2.37158902158801
3.22364533772852
3.00069979256835
2.22821791182429
1.75930634445399
1.82342542471165
1.9685963658456
2.15816407759416
2.16455674444549
1.81497180354567
1.06270262841193
0.812704343725484
0.546032467775088
0.218533978644992
1.45687369730773
2.15502608887772
3.03645057998357
3.23283107640751
2.32113338037789
1.91302058049263
1.97142397342995
2.11055408537014
2.27198665006843
2.26364734524111
1.93245132171248
1.16615616204072
0.896879367262559
0.601562120727636
0.243809227378326
1.59830810991895
2.30818287978591
2.93840115938958
2.3484519854826
1.9033014941198
1.4643101421914
1.5592092964072
1.72568604689613
2.01168236131844
2.03690689646262
1.66678076045622
0.94666926270976
0.765755762778353
0.488243967668302
0.181661573678329
1.49269285163567
2.17489585389486
3.0108712794856
2.7677838382901
2.21172394918209
1.72910070216799
1.82880157325673
1.96964346162731
2.16615832783986
2.17792075732826
1.84890274389333
1.07838921609114
0.800238616609702
0.542933116466451
0.217787594449861
1.44967495486088
2.10638789443663
3.01988997819037
3.13805628627777
2.33068778455178
1.91693818340019
1.97617085496555
2.12258483628846
2.27194819420949
2.26910270134907
1.93442744046471
1.17537932114809
0.896043465751679
0.600554224501143
0.243149885129879
)
;

boundaryField
{
    inlet
    {
        type            calculated;
        value           nonuniform List<scalar> 
24
(
0.799127621271789
0.799127856487137
0.799127620921811
0.799127862459077
0.799127626796796
0.7991278622783
0.799127621271789
0.798870197963154
0.798492075405471
0.799127856487137
0.798870554473044
0.798492231537562
0.799127620921811
0.798870197554749
0.79849207518464
0.799127862459077
0.798870560747291
0.798492235774808
0.799127626796796
0.79887020345652
0.798492078858455
0.7991278622783
0.79887056067902
0.798492235880987
)
;
    }
    outlet
    {
        type            calculated;
        value           nonuniform List<scalar> 
156
(
0.00171474217471151
0.0123880069492711
0.101037053868077
0.0813047469965794
0.107900629659813
0.116637850713488
0.121905804646826
0.165654510904494
0.254142282331667
0.336278288796206
0.699976222586268
0.674817027014603
0.457279967272356
0.148676879176911
0.0132625879763505
0.00191344608988134
0.096018234598449
0.230281589512602
0.162023926354559
0.152848344327972
0.137237276413428
0.136547574008302
0.136119687276194
0.170230487177486
0.263204525894934
0.698250545588213
0.671550087804048
0.456515597606794
0.152400547142278
0.0138520435965923
0.00171473964233903
0.0123879688059239
0.101036921339708
0.0813046829714852
0.107900592472253
0.116637819147819
0.121905768828482
0.165654378055801
0.254142017449659
0.336278148278973
0.699976198456501
0.674816995672496
0.457279947028483
0.148676870607037
0.0132625874618529
0.00191344436287834
0.0960186793524522
0.230281778832395
0.162024235962743
0.152848660023874
0.137237570732999
0.136547772574074
0.136120545451702
0.170231651369094
0.263205270147634
0.69825076839517
0.671550435954842
0.456515779468785
0.152400592992003
0.0138520504383034
0.0017147572378514
0.0123882307231362
0.101037920806761
0.0813053017591775
0.107900941920724
0.116638165820501
0.121906134590923
0.165655797012162
0.254144738077834
0.336279629076708
0.699976402475591
0.674817240441774
0.4572801026441
0.148676930881184
0.0132625879666467
0.00191344471342754
0.0960187550694891
0.230281829813449
0.162024290269291
0.152848706360873
0.137237604971428
0.136547800215001
0.13612064119057
0.170231773772656
0.263205337558863
0.698250785173712
0.671550466373222
0.456515798637043
0.152400599712332
0.0138520509564712
0.0126499410685056
0.033975488115827
0.0756361480219487
0.131217763145656
0.179940101646213
0.217154906915649
0.243521674833414
0.0131971810254352
0.0356649934550001
0.0773906935289511
0.131542938485928
0.17953734182444
0.216708162256458
0.242903166009588
0.0126499404905934
0.0339754869520273
0.0756361466964055
0.131217761717748
0.179940100728779
0.217154906462165
0.243521674157224
0.0131971867395794
0.0356650041722867
0.0773907069705923
0.131542947699144
0.179537340621124
0.216708151712279
0.242903155940959
0.0126499417138686
0.0339754940196313
0.0756361515799826
0.13121776660338
0.179940101322843
0.217154905258775
0.243521674237028
0.0131971872541709
0.0356650055004335
0.0773907093581957
0.131542950404663
0.179537342247553
0.216708152095913
0.242903155670891
0.0435512722523009
0.0200147206881133
0.0367834879213665
0.329805315053206
0.0202923451712031
0.00872069063966402
0.0942390855688591
0.221700366138696
0.0435512831258865
0.0200147476646248
0.0367834806882797
0.329805309492454
0.0202921431535165
0.00872112334486908
0.0942396877780939
0.221700542851595
0.0435512139720782
0.0200145815262364
0.0367834117064029
0.329805383450855
0.0202921220051542
0.0087211701449756
0.0942397631264601
0.221700573052622
)
;
    }
    sides
    {
        type            calculated;
        value           nonuniform List<scalar> 
84
(
0.802645869127505
0.801894405783178
0.799630412927536
0.802645734502808
0.801891826270918
0.799631335431326
0.802645866791494
0.801894390160389
0.799630374487791
0.80264574808718
0.80189186997242
0.799631449212144
0.802645892264167
0.801894516261815
0.799630700256006
0.802645748431063
0.801891875210516
0.799631458028561
0.798127613448612
0.797966951000272
0.803089959389145
0.798126931450011
0.797965965200344
0.803085891864297
0.798127496395502
0.79796675388638
0.803089803821551
0.798127198444628
0.797966282906425
0.803086247412379
0.798128557557239
0.797968085073767
0.803090746550988
0.798127212106819
0.797966323771083
0.803086320851927
0.816339238243752
0.816333588165535
0.81633911476753
0.816333551569585
0.816339850013245
0.816333554060894
0.833685895813762
0.833681584371524
0.833685875615489
0.833681510990942
0.833685984925175
0.833681498704888
0.853145212009332
0.853149733213714
0.853145225630292
0.853149849477637
0.853145134960616
0.853149867557788
0.875214207685387
0.875209971435075
0.875214215120379
0.875209978279875
0.875214161559481
0.875209980053188
0.900962042002013
0.900963440476166
0.900962057947976
0.900963550710709
0.900961951021232
0.9009635688133
0.934204793190677
0.934185303343222
0.934204813275757
0.934185192193786
0.934204686108106
0.934185171661342
0.972582643576254
0.972640970443994
0.972582656214912
0.972640831828802
0.972582576335209
0.972640806256073
1.02575514917821
1.02566551554975
1.02575515868982
1.02566542554957
1.02575509771994
1.02566540903387
)
;
    }
}


// ************************************************************************* //
