/*--------------------------------*- C++ -*----------------------------------*\
  =========                 |
  \\      /  F ield         | OpenFOAM: The Open Source CFD Toolbox
   \\    /   O peration     | Website:  https://openfoam.org
    \\  /    A nd           | Version:  11
     \\/     M anipulation  |
\*---------------------------------------------------------------------------*/
FoamFile
{
    format      ascii;
    class       volScalarField;
    location    "0.0000900086";
    object      p;
}
// * * * * * * * * * * * * * * * * * * * * * * * * * * * * * * * * * * * * * //

dimensions      [1 -1 -2 0 0 0 0];

internalField   nonuniform List<scalar> 
900
(
796604.087169955
797269.847370171
799289.603643377
796684.451313765
797333.777164768
799347.033594288
796741.61812067
797377.036790971
799395.960496686
796605.048074035
797273.042133463
799289.677184208
796685.844420587
797337.639985125
799348.638636175
796741.351406136
797376.492497128
799395.345733763
796604.089415994
797269.863802113
799289.655096833
796684.453416272
797333.790989769
799347.077038519
796741.618755611
797377.040761908
799395.974590252
796605.040683115
797273.003081173
799289.551068908
796685.838924314
797337.610896026
799348.526118879
796741.343829858
797376.455121374
799395.253596558
796604.067562232
797269.734229691
799289.235935357
796684.432987259
797333.67908056
799346.727070811
796741.612892809
797377.00729724
799395.852571073
796605.039919685
797272.997268337
799289.541189401
796685.83826321
797337.606578288
799348.516540245
796741.342982044
797376.450209881
799395.242014142
800712.858982072
800406.800228096
795356.061302098
800762.6522719
800444.980397572
795383.190086558
800795.270504993
800469.194840893
795397.277334342
800713.897498898
800407.59318282
795359.229819079
800764.1226612
800445.83657197
795385.697060812
800795.232310116
800469.346338607
795397.589466961
800712.930743046
800406.927323816
795356.164018063
800762.714311154
800445.096055711
795383.296605982
800795.287456491
800469.212654608
795397.273915517
800713.674926422
800407.218358724
795358.788317955
800764.027010544
800445.67652166
795385.457819993
800794.964731333
800469.026213784
795397.395412583
800712.169718186
800405.877607293
795355.373836646
800762.086669872
800444.118463762
795382.477714388
800795.147939921
800469.057100389
795397.214104714
800713.666748061
800407.187289936
795358.72526889
800764.025472252
800445.67162579
795385.423605115
800794.929534384
800468.967577472
795397.365304557
782731.576254502
782750.940746218
782756.011200245
782734.553808665
782753.594093431
782756.638956411
782731.646323223
782751.064466707
782755.990809248
782734.27193852
782753.669331115
782756.808376473
782731.103410926
782750.158556098
782756.111289412
782734.229802587
782753.686524769
782756.84099046
766580.624445043
766586.3991204
766589.417098376
766584.124163944
766590.365180363
766591.455700822
766580.631272226
766586.421577894
766589.419849109
766583.922216484
766590.421070813
766591.494135808
766580.542814321
766586.236485266
766589.407841595
766583.889487289
766590.43658675
766591.499451563
748938.791016301
748949.335938554
748949.536311061
748936.231891507
748945.31158304
748949.871832888
748938.78455237
748949.333727706
748949.535448467
748935.844844864
748945.037013917
748949.851433216
748938.809579039
748949.33711488
748949.529315425
748935.777849839
748944.99107937
748949.850030597
729403.09193721
729394.402347242
729395.758135497
729406.061676378
729402.029161399
729395.610196215
729403.101662069
729394.407542163
729395.761601296
729405.735592227
729401.799057899
729395.578537586
729403.037574222
729394.365867169
729395.716737595
729405.674853194
729401.754291377
729395.571313621
707421.282262653
707442.289705177
707439.576003924
707418.961901058
707433.016951837
707435.669131451
707421.291115245
707442.295548184
707439.578507277
707418.543403411
707432.682552469
707435.607456591
707421.235232272
707442.254619186
707439.554383303
707418.467223054
707432.621728229
707435.592272318
680135.410279887
680081.864404589
680065.868950124
680134.039257369
680099.735110879
680068.983676875
680135.413489986
680081.863910265
680065.872050486
680133.906103992
680099.608487514
680068.925819768
680135.402730988
680081.874420594
680065.852188997
680133.880527201
680099.583499709
680068.916256052
650135.146818857
650060.917586775
650024.385414508
650089.073419432
650043.003193975
650022.728226251
650135.156462834
650060.924422052
650024.38915275
650089.012539204
650042.956717141
650022.72417944
650135.094637149
650060.881830348
650024.366253631
650089.001043479
650042.947760087
650022.723264131
611204.487276532
611300.099396337
611419.022841171
611262.955153361
611340.423885927
611424.953317119
611204.495493218
611300.105138976
611419.027364279
611262.898107139
611340.374833514
611424.930602876
611204.442644376
611300.06900992
611418.998909034
611262.887405674
611340.365586958
611424.926296518
799960.218638098
800053.90425987
800087.467931715
799960.404127753
800054.222919842
800087.36297878
799960.218811898
800053.904482239
800087.46804101
799960.403920126
800054.222636942
800087.362290327
799960.217299609
800053.902407212
800087.467439932
799960.403800539
800054.222479524
800087.362177606
43952.7548394501
84792.995652319
94564.5760917451
95783.0443114025
96454.5710197373
96566.1409892196
96372.0396912883
92224.8638599121
94378.9210557061
89607.3060889743
118789.805365439
141372.418699859
134763.203098993
113291.231346408
102316.000484615
42034.0276538188
81555.1458265357
99398.6510470108
102465.249186705
106113.440609773
105433.166269963
104155.776603274
98207.8573827397
90268.995039628
76616.81134546
104841.067561257
149697.818038419
141325.503558472
126305.680717345
104813.123055485
34043.1166596928
49142.5495977208
71941.3622289312
94620.1708686593
97893.9700116622
100395.441440471
99929.9366645372
95722.7599323761
86157.7505095443
77176.3975453102
101382.773449092
175924.007825615
168273.192618668
144577.7862852
108502.752383089
38156.1381614366
19830.8646117494
29578.2708652766
66750.0374376107
96781.8356723656
112411.064226128
103296.542689946
93484.8984520207
80220.5673775967
76085.1561184477
100439.020285936
173737.5555413
196235.523653785
162018.905320672
112890.817306163
60439.6660989592
92347.8580119432
103805.646516228
98624.8273424298
95148.6927138962
93898.0761297744
95488.3069727306
91997.5637076133
92558.3589804495
86678.6546177777
110483.276100103
136081.512943823
133132.601765961
113603.55405335
102393.43220648
62987.7619719677
100025.328287578
99729.7320952714
100659.416553819
105028.979216923
104855.36446062
103319.202663313
96610.727971362
87924.4494087198
74568.3481405096
103633.954738297
147755.98133103
138868.125158328
126520.246775366
105117.094302373
60903.8482501075
77971.6865490028
84736.4506742587
91448.9877212436
98254.9212431391
99749.683306051
98006.2613527978
93042.8786271081
82573.8585922638
72210.4995874748
97784.7737329683
177844.762008012
164795.058683529
144091.888277283
108891.505094722
74732.0324092063
42771.4508754149
46657.9870773596
70736.9101326382
98395.6424046457
112325.794622462
97737.1586635013
87384.6059957568
76121.1997257477
72697.2208243979
101349.111708317
177954.98399987
194528.422521364
160258.718482581
113255.490080523
43952.752081311
84792.9798739704
94564.5501162247
95783.0291756606
96454.5668875494
96566.1391975871
96372.0398443552
92224.8735218559
94378.916242936
89607.297184327
118789.791507381
141372.409347181
134763.196822315
113291.22978323
102316.000423866
42034.0216099505
81555.1350857691
99398.6339003271
102465.240461341
106113.436995306
105433.16677929
104155.777690473
98207.8571243515
90268.991175751
76616.8046201591
104841.061233493
149697.811980543
141325.502734738
126305.680091462
104813.122929104
34043.1122321678
49142.5539318803
71941.3561015812
94620.1594771425
97893.9652344852
100395.445192509
99929.9299200023
95722.7571291223
86157.7400041201
77176.3946500395
101382.77121376
175924.00057863
168273.188592169
144577.785472012
108502.75229671
38156.1292883379
19830.868553378
29578.2765276925
66750.0350331428
96781.8355529721
112411.075956731
103296.53025497
93484.8902180214
80220.5596464721
76085.1529951361
100439.009639317
173737.549937607
196235.520112977
162018.904829856
112890.817259345
60439.7284103299
92347.8733865083
103805.696330163
98624.8409573682
95148.6869501068
93898.0500711237
95488.3392861903
91997.4800199389
92558.3713924429
86678.733425923
110483.359147968
136081.570483484
133132.623354241
113603.556959482
102393.432544182
62987.755056491
100025.308773998
99729.7207190147
100659.424589429
105028.978778711
104855.340658918
103319.234886813
96610.7683701456
87924.4966972855
74568.4097832465
103633.971343607
147756.040621575
138868.144867136
126520.251695871
105117.095250208
60903.8646895612
77971.6214295366
84736.3185986233
91449.0456409151
98254.939120118
99749.635620326
98006.2766088982
93042.9319172735
82573.927910124
72210.6343334948
97784.8598281674
177844.822983768
164795.09125853
144091.894734012
108891.506315847
74732.1086715874
42771.4422162066
46657.7950788218
70736.8478049901
98395.5827775837
112325.678573872
97737.1823360164
87384.6688291853
76121.2121769569
72697.2576177951
101349.083843382
177954.997833462
194528.431365885
160258.720946399
113255.490483469
43952.7833784426
84793.0805217526
94564.7469874744
95783.1379422615
96454.5621682779
96566.12391354
96372.0134942275
92224.7589210344
94378.9583665926
89607.3953492695
118789.940657094
141372.498834924
134763.25892572
113291.24389225
102316.000725985
42034.0686294423
81555.2018522344
99398.7630404535
102465.287255216
106113.426282675
105433.141562138
104155.753004786
98207.8533800467
90269.0301960659
76616.8770573677
104841.131944748
149697.865299646
141325.508165133
126305.685027329
104813.12379469
34043.1393856
49142.5149082877
71941.4057419182
94620.2293465216
97893.9689739843
100395.392602948
99929.9848239132
95722.7782460759
86157.8440890979
77176.425595627
101382.797638314
175924.080583216
168273.21815945
144577.789945644
108502.751737961
38156.1855401439
19830.8361945946
29578.2303692817
66750.044013053
96781.8168832481
112410.956127343
103296.627379688
93484.9561005301
80220.6321300783
76085.176935347
100439.113596041
173737.609670349
196235.548759832
162018.907192938
112890.816527072
60439.7369500104
92347.8789481007
103805.707566043
98624.8496416261
95148.6914471177
93898.0512116471
95488.3453315395
91997.4737042483
92558.3742012568
86678.7399451328
110483.36478177
136081.576304601
133132.626792399
113603.557800811
102393.432584985
62987.7569557744
100025.310352534
99729.7214119614
100659.429526167
105028.982348093
104855.339720391
103319.239181636
96610.7741057174
87924.5025448552
74568.4147030802
103633.971496456
147756.045205245
138868.146798721
126520.252656924
105117.09539772
60903.8690429483
77971.6148777943
84736.3039920918
91449.05631645
98254.9440111476
99749.631080671
98006.2796421615
93042.9397783305
82573.9358769573
72210.6465321771
97784.8649561418
177844.826551859
164795.094430986
144091.896032934
108891.506608332
74732.1208062877
42771.4401442918
46657.7713240641
70736.8409565797
98395.5774688199
112325.664698895
97737.1873026799
87384.6785179806
76121.2144041282
72697.2607956447
101349.078142376
177954.997730938
194528.43264819
160258.721947425
113255.490861289
191857.81748049
46741.6759034867
19447.1402587273
40553.7713083711
88846.4942624842
126873.338999996
112559.822380152
91919.9257420092
74310.2798640627
73722.744659695
103437.64399166
172594.062453797
220835.132458054
173067.156520448
116323.032813939
265275.165478721
75877.5859357071
21351.9258675897
26904.4812925645
81383.3915149225
134474.937289295
121520.861955649
95065.5312962864
71996.3913581079
71208.8161821357
104748.608013187
186669.276424594
232677.639635539
179594.447942655
118369.592212908
321798.642956027
109610.9292654
26035.5396844026
24047.3462411576
87535.1910856099
141710.482011362
125236.119656338
95805.1989983516
70230.7328135284
69316.5164881162
101648.630120923
193676.072006787
239933.30364991
185183.180515016
119852.591134931
232970.104398309
77274.3722890864
29230.4898042275
50147.5707062599
89243.0281104701
129150.204393174
107535.451847452
84703.4016678178
69630.807574748
69729.9976072184
100766.667081405
176723.245794929
221473.60706936
171599.225778883
116346.561675875
299154.418678227
106413.853677748
30099.7904777084
34893.8831063894
80441.2869325405
136211.521473144
116691.499882294
87755.5988506025
67679.4255716061
67827.5185166295
100988.101877905
178969.718868718
230432.760103794
178036.742014423
118420.60559345
328946.104323285
124677.795808724
29967.5658515676
26972.4772108534
86595.6747279842
141351.967596376
126506.440006373
91970.1816820579
68224.3815641754
68303.409262674
101235.417134284
189275.092072822
240147.006949719
185109.364292521
119800.551710445
191857.791862733
46741.6640680698
19447.1414743702
40553.7745742386
88846.4920687612
126873.333853912
112559.802539252
91919.9160482908
74310.274385973
73722.7388030771
103437.629828572
172594.052005977
220835.132023398
173067.156269133
116323.032797062
265275.147563318
75877.5741416259
21351.9269823341
26904.4859069065
81383.38288688
134474.940156375
121520.849782729
95065.5196772974
71996.3873581831
71208.8146224701
104748.598747314
186669.271770911
232677.641669594
179594.447947963
118369.592173288
321798.634987451
109610.921956218
26035.5399843765
24047.3466020322
87535.1916403856
141710.487101154
125236.1122598
95805.1901848919
70230.7317219139
69316.5160446676
101648.628054559
193676.07161351
239933.310277324
185183.181051897
119852.591024656
232970.221123381
77274.4585406167
29230.4152772074
50147.4414604244
89243.0249069861
129150.180837685
107535.536234713
84703.4752761215
69630.8337739397
69730.0058218782
100766.655805999
176723.205549075
221473.609244478
171599.226052904
116346.560666883
299154.493783739
106413.938674152
30099.7573744388
34893.785312013
80441.408829217
136211.503114932
116691.573049327
87755.6624471643
67679.4698187558
67827.5327313897
100988.098844577
178969.689895899
230432.745684603
178036.731668572
118420.603898516
328946.123006621
124677.839517594
29967.5454746583
26972.4567680103
86595.6983345727
141351.915790894
126506.479407207
91970.233947882
68224.3865452231
68303.4093329323
101235.413222942
189275.102402319
240147.013533743
185109.360091309
119800.55022001
191857.967827389
46741.7482594475
19447.1294554162
40553.7534741371
88846.480570379
126873.347396706
112559.964158068
91919.9951117582
74310.3223384266
73722.7900083795
103437.77802813
172594.157277804
220835.135936543
173067.157914603
116323.032056084
265275.271708018
75877.6579575174
21351.9145910029
26904.4498254375
81383.4205588586
134474.887895963
121520.948219246
95065.619439141
71996.4175067479
71208.8244734998
104748.705213402
186669.326115925
232677.624514173
179594.452047838
118369.591995019
321798.68949909
109610.975210098
26035.5362931532
24047.3453155852
87535.1656637388
141710.435963527
125236.175684613
95805.2679788492
70230.7379244662
69316.5168111438
101648.653849592
193676.078232411
239933.23555439
185183.172296819
119852.591345915
232970.241146733
77274.4713825316
29230.4064175448
50147.4248519441
89243.0281348584
129150.180269768
107535.548336478
84703.4857621943
69630.8380126822
69730.0071105906
100766.652025459
176723.198232404
221473.610117519
171599.226774494
116346.56090752
299154.506256374
106413.951805521
30099.7534642581
34893.7728761934
80441.4269661977
136211.502172932
116691.582847476
87755.6710326358
67679.4757555043
67827.534828765
100988.097144368
178969.685717609
230432.744569074
178036.731297515
118420.603984808
328946.125785971
124677.846435816
29967.5424531412
26972.4542213496
86595.7036389828
141351.909667938
126506.484436834
91970.2408118555
68224.387774539
68303.4097353657
101235.412449934
189275.10305351
240147.013909368
185109.359735443
119800.550155229
)
;

boundaryField
{
    inlet
    {
        type            timeVaryingMappedFixedValue;
        fieldTable      p;
        value           nonuniform List<scalar> 
24
(
800000.176037717
800000.176037717
800000.176037717
800000.176037717
800000.176037717
800000.176037717
800000.176037717
800000.176037717
800000.176037717
800000.176037717
800000.176037717
800000.176037717
800000.176037717
800000.176037717
800000.176037717
800000.176037717
800000.176037717
800000.176037717
800000.176037717
800000.176037717
800000.176037717
800000.176037717
800000.176037717
800000.176037717
)
;
    }
    outlet
    {
        type            freestreamPressure;
        freestreamValue uniform 101325;
        supersonic      false;
        value           nonuniform List<scalar> 
156
(
44811.8384279918
87389.6453654344
97281.437992248
97276.4917128563
97897.2077476255
98022.4988881999
97923.9039910025
95428.6288082149
97677.8242670391
99516.7045583102
101760.28201167
103507.096598044
103223.863035873
102264.020370017
101450.591081837
61697.8280089675
96952.4565725966
102682.588927575
99500.7070173517
97176.4289584622
96340.3905889949
97476.5561476484
95000.269814011
95950.7151409496
98854.5594622864
101492.451100289
103089.318472105
103033.748416234
102263.177461434
101459.902608211
44811.834415123
87389.6271637495
97281.4212856726
97276.4800781903
97897.2046096678
98022.4974882587
97923.9039495687
95428.634020665
97677.820323724
99516.7035078958
101760.281407501
103507.095788582
103223.862382805
102264.020163918
101450.591071358
61697.897483712
96952.4709354125
102682.616293979
99500.716345428
97176.4253593184
96340.3737819
97476.5783119563
95000.2226455577
95950.7321438646
98854.5589223542
101492.453478288
103089.322779155
103033.749930275
102263.177593206
101459.902624691
44811.874117329
87389.7419871202
97281.5475707947
97276.5647185258
97897.2029911986
98022.4884137223
97923.8870457106
95428.5704493143
97677.8563713847
99516.7165276153
101760.288283555
103507.10427945
103223.869080408
102264.022142227
101450.591133457
61697.9069919017
96952.4753464564
102682.622360318
99500.7223045424
97176.4285447772
96340.3746692397
97476.5824458602
95000.2194840201
95950.7349627965
98854.5589527549
101492.453642867
103089.323199333
103033.750231316
102263.17768665
101459.902630523
101490.822061157
101579.438226569
101627.263221144
101621.0957873
101533.910635898
101436.804273268
101352.662679335
101504.342072564
101606.945316932
101643.251382765
101608.560318651
101503.680515029
101414.222024844
101349.595685007
101490.822054111
101579.438227805
101627.263231689
101621.095804717
101533.910656333
101436.804286537
101352.662686584
101504.342158683
101606.945377831
101643.251334601
101608.560068585
101503.680273398
101414.221883788
101349.595662403
101490.822077948
101579.438195267
101627.263076403
101621.095632808
101533.910463531
101436.804167565
101352.662624205
101504.342164767
101606.94538491
101643.25134463
101608.560060415
101503.680249761
101414.221863775
101349.595656416
65671.1281674122
49767.9796250963
37833.3824927817
44685.312113355
73821.3558932736
64849.2792234017
64954.4016068542
76771.8999718036
65671.1316293164
49767.9773579779
37833.3780204937
44685.3037314192
73821.3731377941
64849.3439870874
64954.4287856464
76771.9714727005
65671.1156400561
49768.0047013729
37833.3948988478
44685.3579695495
73821.3755370502
64849.353417663
64954.4343521719
76771.98292055
)
;
    }
    sides
    {
        type            zeroGradient;
    }
}


// ************************************************************************* //
