/*--------------------------------*- C++ -*----------------------------------*\
  =========                 |
  \\      /  F ield         | OpenFOAM: The Open Source CFD Toolbox
   \\    /   O peration     | Website:  https://openfoam.org
    \\  /    A nd           | Version:  11
     \\/     M anipulation  |
\*---------------------------------------------------------------------------*/
FoamFile
{
    format      ascii;
    class       surfaceScalarField;
    location    "0.0000900086";
    object      phi;
}
// * * * * * * * * * * * * * * * * * * * * * * * * * * * * * * * * * * * * * //

dimensions      [1 0 -1 0 0 0 0];

internalField   nonuniform List<scalar> 
2478
(
0.000841701877519162
-0.00017839888114741
-1.16332953198958e-10
-1.36419563688019e-10
-0.0010654063712982
0.000644095073523479
-0.000157443831071791
-7.61942354587757e-10
-7.69438699549634e-10
-0.000136415221614064
-3.40646289903037e-10
-3.79615904900002e-10
0.000472938457185427
0.000504965630089419
-4.45801181840416e-05
7.10372600586789e-11
5.25571444546548e-11
-0.000639140183035112
0.00038643487369386
-3.93441976474499e-05
-3.08332449090905e-10
-3.0963545410382e-10
-3.40940144477242e-05
-2.27563150072795e-11
-6.49936965141026e-11
0.000283759318779427
0.000168272503471724
-2.33218260838313e-10
-2.51011680570731e-10
-0.000212970710698379
0.000128785685667053
-6.14384913007627e-10
-6.10392732777569e-10
-2.92183206557391e-10
-3.42180066643634e-10
9.45745375562298e-05
0.0008417024356964
-0.000178398624731728
1.17895596985027e-10
-0.00106540687291315
0.000644095753752273
-0.000157440882898149
7.60926013388188e-10
-0.000136414234938003
3.44319703499997e-10
0.00047293871874335
0.000504966648826852
-4.45792942241057e-05
-6.95185172990866e-11
-0.000639140865199247
0.000386436270657998
-3.93420413804498e-05
3.07037957287658e-10
-3.40927935973099e-05
2.83222577606313e-11
0.000283760244554709
0.000168272492255316
2.34482106799792e-10
-0.000212970695566969
0.000128785519976279
6.12104542887463e-10
2.92761664086663e-10
9.45744933805381e-05
0.000841701876444216
-0.000178398883692568
-1.36188856741416e-10
-0.00106540637063731
0.000644095069065213
-0.000157443824047864
-7.68093073681957e-10
-0.000136415236708404
-3.80906528622263e-10
0.000472938430206768
0.000504965629569547
-4.45801192448004e-05
5.27475484623195e-11
-0.000639140182782456
0.000386434872075974
-3.93441940380565e-05
-3.08698325257074e-10
-3.40940157207772e-05
-6.61439217470878e-11
0.000283759310192531
0.000168272503377192
-2.50709530772494e-10
-0.000212970710671935
0.000128785685305372
-6.08987189832082e-10
-3.40323427587812e-10
9.4574535116468e-05
0.000841702444598503
-0.000178398587834232
1.17883351029909e-10
-0.00106540688227434
0.00064409576865921
-0.000157440868111373
7.7204062533167e-10
-0.000136414128752888
3.36090045876224e-10
0.000472938765982171
0.000504966654818047
-4.45792759786989e-05
-7.04311422551618e-11
-0.000639140870416512
0.00038643628020908
-3.93420361156339e-05
3.14603956926528e-10
-3.40927382848922e-05
1.82339150560113e-11
0.00028376029231697
0.000168272492827024
2.35812303386353e-10
-0.000212970696538089
0.000128785519624507
6.25399920598565e-10
3.01130222428621e-10
9.45744967734652e-05
0.000841701887928505
-0.000178398853165358
-1.19697208308261e-10
-0.00106540638070205
0.000644095101829368
-0.000157443873853263
-7.72451106767838e-10
-0.000136415100655159
-3.37892246056763e-10
0.000472938661469446
0.000504965634856687
-4.45801066246968e-05
6.87006402829739e-11
-0.000639140186999614
0.000386434883654539
-3.93442213566596e-05
-3.14310648200696e-10
-3.40939701007627e-05
-2.20714505157725e-11
0.000283759393224048
0.000168272504634293
-2.37390302998842e-10
-0.000212970711582593
0.000128785689603367
-6.24543239065127e-10
-3.03247798427069e-10
9.4574558779917e-05
0.000841702444590471
-0.000178398583887036
-0.00106540688197009
0.000644095769591655
-0.00015744086705937
-0.000136414117133243
0.000472938768504705
0.000504966654824508
-4.4579274172058e-05
-0.000639140870190127
0.000386436280707905
-3.93420359798959e-05
-3.40927342069844e-05
0.000283760296221911
0.000168272492798374
-0.000212970696536288
0.000128785519424192
9.45744965493535e-05
0.000472812750569558
1.90807667332709e-07
-3.81196961474727e-10
-2.21243440451727e-10
0.000472809228513512
9.54988097871812e-08
-4.14655811640033e-10
-1.09581833461925e-10
5.80498304892816e-08
-1.27179834659473e-09
-7.432877260731e-10
0.000473583614164106
0.00028369741189845
5.20166970838795e-08
-1.95273273462596e-10
5.86047076752555e-11
0.000283696258549279
2.50690575037075e-08
-3.04130413344636e-10
8.53702288982489e-11
1.66713494099643e-08
-9.34396878881499e-10
-3.51374346068897e-10
0.00028415892262565
9.45608101036076e-05
-3.61294760060048e-10
9.17220390351386e-12
9.45625484171166e-05
-4.27894902615879e-10
3.38453364889368e-10
-7.38986260747677e-10
2.16855618423266e-10
9.47195188782457e-05
0.000472812625653896
1.91916796607027e-07
3.36725006222244e-10
0.000472808873981873
9.69991208267561e-08
3.18690883958136e-10
6.36338980050666e-08
1.13316099228543e-09
0.000473582487434456
0.00028369776572802
5.30114887707309e-08
1.51748201298544e-10
0.000283696471616002
2.5821504349207e-08
2.16459284090725e-10
1.84106721997637e-08
8.05262552114588e-10
0.000284159911662929
9.45608243585018e-05
3.10298993368586e-10
9.45625348268384e-05
2.96487115349249e-10
5.69613176450764e-10
9.47194721236215e-05
0.000472812708397397
1.90944195224132e-07
-1.90629813150156e-10
0.000472809183901732
9.58401403304381e-08
-4.67898484714235e-11
5.84977597258441e-08
-6.74516149911427e-10
0.000473583578734888
0.000283697404341733
5.20874493367858e-08
7.87906399737741e-11
0.000283696264324223
2.52550069047125e-08
1.30369622757844e-10
1.6900616986676e-08
-2.99268454147846e-10
0.000284158954563279
9.4560805463016e-05
2.92348644207949e-11
9.45625436726585e-05
3.841497056979e-10
2.64864328928562e-10
9.47195176832105e-05
0.000472812659495639
1.91690322067601e-07
5.61533574576067e-10
0.000472808858955208
9.65410098271004e-08
7.60481453200915e-10
6.27772284356913e-08
1.65527875374593e-09
0.000473582421811773
0.000283697899155848
5.27919071542779e-08
3.00898813081641e-10
0.000283696617495191
2.54357937620937e-08
5.39896557636647e-10
1.78400183645428e-08
1.21685599454874e-09
0.000284159972901567
9.45607977546889e-05
5.00035500364867e-10
9.45625026925862e-05
6.87873197367361e-10
1.01443850937738e-09
9.47194389839682e-05
0.000472812966837486
1.8969311545527e-07
-5.48516461418291e-10
0.00047280938727832
9.32787459862004e-08
-7.28253194293843e-10
5.53309642684682e-08
-1.58646232484511e-09
0.000473583702056436
0.000283697428275372
5.13982826992371e-08
-2.78392004165063e-10
0.000283696134600597
2.38511628726425e-08
-4.98099892386715e-10
1.52128417348703e-08
-1.14033708609748e-09
0.000284158672033718
9.45608353547045e-05
-4.69627611701228e-10
9.45625626075579e-05
-6.02618197584424e-10
-8.88060390470072e-10
9.47194979751939e-05
0.000472812665901572
1.91689883950069e-07
0.000472808867512729
9.65072281515099e-08
6.26584757401887e-08
0.000473582425684375
0.000283697917558335
5.27787690048553e-08
0.000283696648334517
2.53906849761922e-08
1.77595156752842e-08
0.000284159991302454
9.4560794007486e-05
9.45624976945794e-05
9.47194357695202e-05
4.10183453088348e-05
-1.67958268338297e-09
-1.21976760240677e-09
0.000526178845560416
1.02574033550254e-05
-1.82483946389086e-09
-1.43326926450296e-09
0.000315714641041386
-7.48015573255861e-10
9.57735572164158e-10
0.000105240497562119
4.10267917831356e-05
1.53483872237115e-09
0.00052617673629163
1.02589110010329e-05
1.68108388863032e-09
0.000315715782586393
4.81706622886598e-10
0.000105240918565906
4.10189041304978e-05
-1.13609925693437e-09
0.000526178817105877
1.02577151881755e-05
-1.34172726314746e-09
0.000315714684616241
9.9298512511517e-10
0.000105240507062399
4.10256896345046e-05
2.08625770110014e-09
0.000526176500626793
1.02576701693124e-05
2.27457757923794e-09
0.000315715866653248
9.22756879261945e-10
0.000105240931027828
4.101520068533e-05
-2.02798107506227e-09
0.000526178927203015
1.02555701215312e-05
-2.22480085298581e-09
0.000315714355269656
-6.77819350614842e-10
0.000105240458079488
4.10255311169188e-05
0.000526176465456175
1.02574675673284e-05
0.000315715885711437
0.000105240932127935
3.43922434861287e-05
-2.28136340553334e-09
-1.05361949823439e-09
0.000570696593739714
8.59722545564542e-06
-2.40969213821055e-09
-1.2086851938699e-09
0.000342422880760456
-1.67400755009175e-09
-8.8927220350931e-11
0.000114143016124187
3.44044414012244e-05
2.07482311919468e-09
0.000570697459194657
8.60175017234309e-06
2.18907095879059e-09
0.000342423497762979
1.41406448854985e-09
0.00011414312945122
3.43927517454117e-05
-1.01150746513543e-09
0.000570696596222254
8.59750149410601e-06
-1.15482884767513e-09
0.000342422889189235
-6.18879288636666e-11
0.000114143015271656
3.44022858756517e-05
2.32187327719492e-09
0.000570697292493514
8.60051411443152e-06
2.58927738044966e-09
0.000342423497395622
1.78512401708504e-09
0.000114143155874134
3.43895702010527e-05
-2.15762421639084e-09
0.000570696559789596
8.5956998701529e-06
-2.42282061682078e-09
0.000342422834251195
-1.55047951837543e-09
0.000114143027083054
3.4401956585587e-05
0.000570697262243708
8.60030885622276e-06
0.000342423497486048
0.000114143160115859
2.37797273344947e-05
3.35194685484493e-09
4.18719362660228e-09
0.000601932745824044
5.94471328777273e-06
2.43884477917804e-09
3.29778379278868e-09
0.000361165735723424
3.97011169978641e-10
1.50318083501355e-09
0.000120390759952674
2.37630808322831e-05
-3.49038266252979e-09
0.00060193413047723
5.94120642494032e-06
-2.58270405913532e-09
0.000361164697959747
-5.58381737928489e-10
0.000120390278008939
2.37800525416233e-05
4.20924482237833e-09
0.000601932756707082
5.94487836947782e-06
3.32292134422579e-09
0.000361165739846845
1.50722026867741e-09
0.000120390759431833
2.37614134721689e-05
-3.21505377106224e-09
0.000601933914441975
5.94026238146536e-06
-2.29976097703127e-09
0.000361164591422296
-3.74615270065399e-10
0.000120390283789304
2.37777468465219e-05
3.33148666905323e-09
0.00060193268432845
5.94371451921675e-06
2.41860463780089e-09
0.000361165717164531
5.32703440712066e-10
0.000120390762623866
2.37611431732071e-05
0.000601933874431511
5.94010602141063e-06
0.000361164571721422
0.000120390284660527
2.96391319499513e-06
-8.130539048501e-09
-7.04854985825436e-09
0.000607088289316181
7.39473574384874e-07
-3.99374224831347e-09
-2.95888224273629e-09
0.000364251079233331
-2.76215813811926e-09
-1.5893741877617e-09
0.000121419310641882
2.99296808092256e-06
7.96258472839876e-09
0.000607090201244167
7.48946464848728e-07
3.82608479897488e-09
0.00036425470874589
2.58369057577626e-09
0.000121418614611846
2.964265184601e-06
-7.04925510937879e-09
0.000607088306555461
7.3965250306431e-07
-2.95155358731288e-09
0.000364251084572004
-1.59005757649142e-09
0.000121419312661362
2.99111863849327e-06
8.18671603685511e-09
0.000607089961148637
7.4792754277376e-07
4.07361145168686e-09
0.000364254571330916
2.76239760417258e-09
0.000121418593125009
2.96187894401631e-06
-8.01826351810257e-09
0.000607088197235948
7.38473193862368e-07
-3.91347288863225e-09
0.000364251046568685
-2.58334270023929e-09
0.000121419294288408
2.99077368606522e-06
0.000607089915895354
7.4774276722175e-07
0.000364254544075209
0.000121418588654437
7.87856087548636e-05
1.43779208125407e-08
1.53669408550533e-08
0.000706747025432326
1.96965704883447e-05
7.18522433153408e-09
8.29927143740188e-09
0.000424063098932926
3.58712030971943e-09
4.74729695924001e-09
0.000141353480102263
7.87278542258122e-05
-1.45311538748472e-08
0.000706752410094971
1.96799310424003e-05
-7.34602289751123e-09
0.000424056198103097
-3.75766807893165e-09
0.000141351820489324
7.87859369907042e-05
1.53693047252748e-08
0.000706747046259044
1.9696744022229e-05
8.29291554779168e-09
0.000424063106724088
4.74481164910523e-09
0.000141353484281536
7.87257536549022e-05
-1.42751111207912e-08
0.000706752125259372
1.96788421999349e-05
-7.16590761073088e-09
0.000424056000238835
-3.56342336416344e-09
0.000141351774329695
7.87835864803436e-05
1.44255344828171e-08
0.000706746914086798
1.96955414882958e-05
7.33273155801954e-09
0.000424063057181996
3.73613056638133e-09
0.000141353456820189
7.87253740778545e-05
0.000706752071763151
1.96786477531018e-05
0.000424055963301925
0.000141351765982698
0.00113571164277747
-3.35042015004068e-08
-3.19285835467527e-08
0.00212808873259892
0.000283924435458156
-1.48195406389148e-08
-1.32725746924598e-08
0.0012768275426149
-8.92880629502213e-09
-7.19674868516259e-09
0.000425610064656994
0.0011358291065872
3.32816660050046e-08
0.00212807547803619
0.000283963053617508
1.45987033880308e-08
0.00127684231356752
8.68648063071312e-09
0.000425613269554045
0.00113571210202692
-3.1942287159162e-08
0.00212808879810017
0.000283924672957174
-1.32791391756291e-08
0.00127682756386188
-7.20555994851348e-09
0.000425610073880601
0.00113582608784881
3.35726328304538e-08
0.00212807487251148
0.000283961495696814
1.48686675713089e-08
0.00127684192258248
8.90956144516779e-09
0.000425613161039994
0.00113570873435302
-3.33372312721274e-08
0.00212808838953932
0.000283922975343185
-1.46423062114226e-08
0.00127682743696388
-8.65836794438062e-09
0.000425610018738182
0.00113582554673035
0.00212807475942299
0.000283961224744277
0.00127684184840945
0.000425613141288437
0.000749486160589636
1.17234215049481e-08
1.33818784282813e-08
0.00306559986283059
0.000187393005230207
2.96541119752195e-09
4.61564970543216e-09
0.00183939886016456
-1.21636064827173e-10
1.62554503180517e-09
0.000613163228108551
0.000749501676081844
-1.19672794746811e-08
0.00306564944174811
0.000187392367419229
-3.20454767073226e-09
0.00183944263084609
-1.25450315717132e-10
0.0006131673917288
0.000749486645530623
1.33733014012804e-08
0.00306559994261266
0.000187393245930583
4.60871290187004e-09
0.00183939889701023
1.61682727666326e-09
0.00061316323915013
0.000749498834461431
-1.16043509100928e-08
0.00306564875400223
0.000187390895613044
-2.90262280021065e-09
0.00183944226983452
1.08008521072268e-10
0.000613167309696061
0.000749483087252463
1.18559619704216e-08
0.00306559943445671
0.000187391527779201
3.14811263993006e-09
0.00183939866503624
1.47463733390051e-10
0.000613163170270794
0.00074949831768824
0.00306564862609547
0.000187390637147512
0.00183944220220079
0.000613167294516388
-0.00175030994383291
-2.85434204787076e-08
-2.70238618132329e-08
0.000875995400430875
-0.000437599552189198
-2.13809661302297e-08
-1.99291808769086e-08
0.000525591518960002
-4.67549606344465e-09
-3.29084744291096e-09
0.000175197672818345
-0.00175025907878518
2.83529201629902e-08
0.000875991621732676
-0.000437584918017363
2.11894305474796e-08
0.000525592532428935
4.48213956851266e-09
0.000175199319934489
-0.0017503096022493
-2.70301197594883e-08
0.000875995418783568
-0.000437599369828192
-1.99341950789613e-08
0.000525591527967641
-3.29385216167209e-09
0.000175197675364112
-0.00175026150613165
2.81773199725145e-08
0.000875991474230335
-0.000437586124629209
2.11550623635082e-08
0.000525592455623296
4.59315858020474e-09
0.000175199301657117
-0.00175031158139592
-2.79809678041033e-08
0.00087599530089365
-0.000437600533067318
-2.09589092055014e-08
0.000525591470543917
-4.39706592924444e-09
0.000175197659224321
-0.00175026184655415
0.00087599144687248
-0.000437586312047425
0.000525592441342005
0.000175199298304527
8.09845341583678e-07
7.322708411861e-11
4.12781745633486e-11
2.20684623599614e-07
3.90243085242326e-11
7.25838345590896e-12
-1.49257528428773e-10
-1.82483328740792e-10
8.09965301466634e-07
-7.0500448415365e-11
2.21230085608887e-07
-3.63042247631361e-11
1.52072275778903e-10
8.0983974468595e-07
4.13731274717319e-11
2.20681820980854e-07
7.36720737583643e-12
-1.82454171617028e-10
8.10025691110766e-07
-7.30630497509238e-11
2.21261071507413e-07
-3.89643263400824e-11
1.50042455077191e-10
8.09905028082152e-07
7.02127517368187e-11
2.20713701476818e-07
3.61044627896802e-11
-1.52904708534442e-10
8.10031438187517e-07
2.21263928828347e-07
-3.81202402598836e-05
0.00012147640698667
4.75533607033419e-06
4.75552850310752e-06
0.000114478374651806
-5.58811297314086e-05
2.20595379327225e-06
2.20607264472434e-06
0.000229824100061534
1.03442736171387e-05
-5.91463735866556e-06
-5.91459837132795e-06
0.000321756269640532
0.00015103530392144
-3.03361756856162e-05
-3.03362151310426e-05
0.000425185710492985
0.000152600874171528
-3.23113722212813e-05
-3.23114806468134e-05
0.000445604682037051
0.000140314921929894
-2.71494986022025e-05
-2.71496213732773e-05
0.000462644163292392
8.96578716947257e-05
-2.5264488746847e-05
-2.52646421013193e-05
0.000498721464734039
4.37695104889778e-06
-1.41973742192472e-05
-1.42029608382927e-05
0.000395377645438399
-8.80978851335865e-05
-7.90659685467356e-07
-7.91194004606637e-07
0.000185189690948415
-0.000397099558511922
-1.32548312188338e-05
-1.32547595768069e-05
0.000440330121633009
-0.00128124585237248
-1.69989267408301e-05
-1.6999056578212e-05
0.000712381114274978
-0.0024487590277619
-3.42858034381736e-06
-3.42850795940564e-06
0.000421278133534025
-0.00191648278778701
-6.8946980073543e-07
-6.89411194963827e-07
5.1551366396694e-05
-0.000551067156179849
8.19599323078626e-07
8.19616414027887e-07
-4.90610147688207e-05
9.68490141005536e-08
9.68510263214557e-08
0.000156284943680886
4.59821249684617e-05
-2.98190195994276e-05
-2.98192657901968e-05
0.0004064070984236
-0.000341299518086964
2.37298126159344e-05
2.37298634530252e-05
0.00044811335467527
-2.60231768190336e-05
4.23674066045611e-06
4.2367005976081e-06
0.000466767832779697
0.000169380375739059
-1.31016596590494e-05
-1.3101570648681e-05
0.000491986014450469
0.000153130291171894
-9.20375041094267e-06
-9.20372646863953e-06
0.000524712935739829
7.86492299238305e-05
2.24194987268739e-07
2.24154995041924e-07
0.000579345296764467
-2.64475359752987e-05
6.14660718532557e-06
6.14651094701832e-06
0.00057958826755667
-5.40243433534006e-05
2.45603500262313e-06
2.45599579577017e-06
0.00057560722875789
3.92424544463952e-05
-2.6782434314383e-06
-2.67851924559733e-06
0.000311519704280685
-9.6318083592747e-05
2.72330111628373e-06
2.72352981159956e-06
0.000236152170878942
-0.000631711361442228
6.72294292081111e-07
6.71951475216914e-07
0.000493251143663264
-0.00169579873232948
7.50949005292711e-06
7.50911647774824e-06
0.000438188713131898
-0.00141179107714831
-3.27569591672958e-06
-3.27574273784655e-06
0.000148282752648871
-0.000614683585450094
1.9977398395374e-07
1.99780561735516e-07
-7.93356144450259e-05
2.21719664594095e-07
2.21720871830067e-07
0.000317217337998204
-0.000335760682522847
4.13921165999082e-05
4.13923617032398e-05
0.000486283086092528
-0.000487112313333485
-1.38772851903133e-05
-1.38771340066867e-05
0.000539086872658345
-7.71463015354971e-05
-2.59545143942565e-06
-2.59510238761131e-06
0.000537954837819442
0.000158642044175709
5.10253917934236e-06
5.10160997611262e-06
0.000495691538633488
0.000192236622187407
1.44923005418842e-06
1.44909851915948e-06
0.000522259439330248
5.52668959364264e-05
-3.40341711015457e-06
-3.4033400527e-06
0.000577618856695635
-8.23071503441202e-05
-2.921381991209e-06
-2.92090044808275e-06
0.000600940606708965
-6.68265000319724e-05
-4.26826434697837e-06
-4.26827878105286e-06
0.000603088404296177
5.15255213602366e-06
2.52491798728005e-06
2.52446288438502e-06
0.00049111619522127
1.57061852907042e-05
3.55239879177861e-07
3.54606950765896e-07
0.000362569530712831
-0.000170435356347739
-5.83797603318322e-06
-5.83772032039176e-06
0.00048341030314818
-0.000732569544289873
5.51543152239235e-06
5.5150628224103e-06
0.000619981992870752
-0.000970970646546173
-8.07818898298314e-06
-8.07823446135009e-06
0.000254111475506288
-0.000606399298499174
-9.0373286709721e-07
-9.03756620243903e-07
-9.50494641776686e-05
1.42659214747147e-07
1.42653860222002e-07
0.000365577938217501
5.94071129632771e-05
5.94073956517337e-05
-0.000728708560163452
0.000277401728359702
-1.69084960842558e-05
-1.69085311548589e-05
-0.000367159707907003
0.000357888115728272
-1.53844904597651e-05
-1.5384354071479e-05
-0.000130239267938293
0.00047465928478367
-1.40228937821182e-05
-1.40220073441383e-05
6.45531952606679e-05
0.000481889388900547
4.7025746727034e-06
4.70231215809246e-06
0.000170042504093382
0.000490485019338557
1.10544143698966e-06
1.10392258549118e-06
4.1649928180008e-05
0.000496034243944457
-1.51142224655565e-05
-1.51141590191687e-05
-5.8060910740537e-05
0.000500482446456448
-7.35237461479415e-06
-7.35227577077646e-06
-5.22009303110243e-05
0.000492900345311402
-6.44784541858619e-08
-6.44795916885244e-08
-6.39488995005701e-06
0.000473413037990814
5.33524920970108e-06
5.33544490814895e-06
2.43675674888838e-05
0.000424052140163324
1.57820403491572e-05
1.57818279169484e-05
-3.5766474676403e-06
0.000423331565214503
3.79842633194702e-06
3.79808857055639e-06
-0.000226705372629387
0.000617956528959613
1.50305724684163e-06
1.50278146114386e-06
-0.000530312916304684
0.000290549192126682
-8.65778808195237e-06
-8.65788012208309e-06
-0.000381873856103955
1.85341635250131e-07
1.85353138923905e-07
-7.38377114549081e-05
5.77756157990928e-05
4.01266876310942e-05
-4.75533425830897e-06
0.000237101465990601
-0.000154025845650005
-2.20595841625426e-06
0.000399243120413463
-6.29049981858555e-05
5.91463083895891e-06
0.000467104597248731
0.000171557771974766
3.03361766728209e-05
0.000478649411333372
0.000152719699116161
3.23113816261442e-05
0.000478311357874416
9.76152180279367e-05
2.71495143031148e-05
0.000481956281476583
3.74897502383414e-05
2.52645148216299e-05
0.000458855415767547
5.0790950439676e-05
1.41979099504971e-05
0.000414004664257194
4.951278899167e-06
7.90679146346011e-07
0.000163787696021038
-0.00033544405747156
1.32548313686084e-05
0.00037359857938043
-0.00138887976918862
1.69989399390989e-05
0.000660555058061324
-0.00245892081436702
3.42857820357322e-06
0.000405967095322304
-0.00189547267733829
6.89465636783586e-07
5.48462032001121e-05
-0.000564507324533239
-8.19601027126715e-07
-5.27222468238056e-05
-9.68491019750855e-08
0.000263584607413305
-0.00025143860008864
2.98190342596275e-05
0.000484634655719485
-0.000326180015702222
-2.3729818978363e-05
0.000518405294705518
-8.60097188262298e-05
-4.23674990668148e-06
0.0005237701077341
0.000155522812997687
1.31016533450339e-05
0.000539670918193481
0.000138882008544876
9.20374840904947e-06
0.000576125101027944
6.6548847150292e-05
-2.24178045259908e-07
0.000605933425253474
-7.61576984233017e-07
-6.14658019395089e-06
0.00061365786223387
-4.57474441777192e-06
-2.45599886717694e-06
0.000576338554097912
3.17011999552484e-05
2.67831341437485e-06
0.000285043138968179
-0.000109551531026747
-2.7232863792474e-06
0.00018242973337596
-0.000673512449431554
-6.72247397725254e-07
0.000473057954785373
-0.00175728362495612
-7.50944012881393e-06
0.000419347257504797
-0.0013946377131933
3.27570632880779e-06
0.00015493129228952
-0.000607404432858647
-1.99773375979945e-07
-8.37310667977911e-05
-2.21719676427024e-07
0.000456823424787617
-0.000564766708571585
-4.13921035116947e-05
0.000593675208001379
-0.00049507208049545
1.38772562050749e-05
0.000556404347546437
-5.7453680203734e-05
2.59541922429692e-06
0.000534798176242849
0.000192371980770933
-5.10246760421839e-06
0.000509783661764912
0.000174249903197934
-1.44922270462586e-06
0.000540008131969772
3.51090940544854e-05
3.40339178280622e-06
0.000579624708397927
-4.15199948811041e-05
2.9213071573065e-06
0.000603376519740033
-3.95276658741292e-05
4.26828258465208e-06
0.000600534760486882
9.01962511863549e-06
-2.52486702447799e-06
0.000491060611329573
-1.87175925855782e-05
-3.551521154865e-07
0.000340269578955847
-0.000216550292840078
5.83796644877736e-06
0.000451932337552226
-0.000810461323636193
-5.51538514836615e-06
0.000607274031155962
-0.000975746581353721
8.07819737286709e-06
0.000249982586048166
-0.000581399874906639
9.03735464665204e-07
-9.61447365481795e-05
-1.42658978503885e-07
0.000492008703562419
-5.94071604406836e-05
-0.000815763334841786
0.000402565920867435
1.69084831437399e-05
-0.000437577480969692
0.000414380556014308
1.53844714549968e-05
-0.000104363306344503
0.00047157310949801
1.40228337172751e-05
0.000105700694157871
0.000473549663651924
-4.70255070203639e-06
0.000179265155408205
0.000473779369446129
-1.10525889254686e-06
3.78237496417316e-05
0.000463602158245031
1.51141983928156e-05
-5.86252623002629e-05
0.00047343102497193
7.35235223153164e-06
-6.21308338614115e-05
0.00048263548559059
6.4466881845662e-08
-2.70605401454372e-05
0.00047940591949112
-5.33523078369429e-06
-1.31228340990754e-05
0.000453923187424421
-1.57819936103723e-05
-3.1530379810477e-05
0.000437646440585698
-3.79838186519588e-06
-0.000244154439395362
0.000617035495441049
-1.50303003959205e-06
-0.000530801882996336
0.000282612875498009
8.6577964354867e-06
-0.000374701400208948
-1.85343221974861e-07
-6.88496233154811e-05
-3.81202561801097e-05
0.000121476400853054
4.75551102380661e-06
0.000114478216154468
-5.58810537954106e-05
2.20606033464368e-06
0.000229823912624891
1.03443268541733e-05
-5.91459937262313e-06
0.000321756127578996
0.000151035247908587
-3.03362137601425e-05
0.00042518564529177
0.000152600928265912
-3.23114793590935e-05
0.000445604624722596
0.000140314973389651
-2.71496243639757e-05
0.000462644046916519
8.96578950331387e-05
-2.52646545541277e-05
0.000498721359652525
4.37714478028874e-06
-1.42029502344732e-05
0.000395377466624956
-8.80975847475031e-05
-7.91166757476683e-07
0.000185189560494996
-0.000397099566933634
-1.32547606432493e-05
0.00044032999239741
-0.00128124603089416
-1.69990501293764e-05
0.000712380992923701
-0.00244875902901596
-3.42850989911163e-06
0.000421278061364539
-0.0019164828199505
-6.89411409390828e-07
5.15513616128674e-05
-0.000551067141789082
8.1961678502409e-07
-4.90610130775902e-05
9.68510207220393e-08
0.000156284923085247
4.59821359656502e-05
-2.98192486454067e-05
0.000406406961883923
-0.000341299318844563
2.37298645191045e-05
0.0004481132203315
-2.6023138714917e-05
4.23671191690595e-06
0.000466767669778432
0.000169380336658537
-1.31015736735052e-05
0.000491985911169423
0.000153130306710522
-9.20372695061364e-06
0.00052471288981636
7.86492438274416e-05
2.24149515922921e-07
0.000579345237237855
-2.64474781651776e-05
6.14649784595739e-06
0.000579588191821712
-5.40242075509153e-05
2.45596364453274e-06
0.000575607145645594
3.92425991422318e-05
-2.67856380737041e-06
0.000311519550427264
-9.63181247699245e-05
2.72350484364412e-06
0.00023615206650035
-0.000631711502466411
6.71937406242576e-07
0.000493251095443263
-0.00169579880228329
7.50910500672456e-06
0.00043818869015927
-0.00141179108027212
-3.27574634303952e-06
0.000148282743524369
-0.000614683585131718
1.997798931462e-07
-7.93356145121094e-05
2.2172083659702e-07
0.00031721727098697
-0.000335760532815218
4.13923256209819e-05
0.000486283039081989
-0.000487112140006305
-1.3877125888072e-05
0.000539086777672054
-7.7146242517255e-05
-2.595114643716e-06
0.000537954733163666
0.000158642026841377
5.10165797483082e-06
0.000495691454782767
0.000192236623041764
1.4491086608815e-06
0.000522259401440839
5.5266827280108e-05
-3.40331405104189e-06
0.000577618747160137
-8.23071044754502e-05
-2.92086726798858e-06
0.000600940519258811
-6.68263849251371e-05
-4.26829170045248e-06
0.00060308830246873
5.15266208501373e-06
2.52445730194049e-06
0.000491116070991986
1.5706101235378e-05
3.54575326255051e-07
0.000362569366990555
-0.000170435510761797
-5.83772403269298e-06
0.000483410244074828
-0.000732569694425757
5.51505129726607e-06
0.000619981959211533
-0.000970970705703866
-8.07823347312084e-06
0.000254111470755782
-0.000606399316516514
-9.0375737401584e-07
-9.50494656541754e-05
1.42653965919625e-07
0.000365577863821752
5.94074015491972e-05
-0.000728708375915887
0.000277401731052609
-1.69085202593693e-05
-0.000367159622407076
0.000357888123003637
-1.53843500013038e-05
-0.000130239233329041
0.000474659230022425
-1.40220580978247e-05
6.45532177950819e-05
0.000481889330653282
4.70233417758446e-06
0.000170042516750542
0.000490484960701329
1.10393441899316e-06
4.1650031193307e-05
0.00049603414752656
-1.51141350098654e-05
-5.80608488793287e-05
0.000500482363934479
-7.35225569153416e-06
-5.2200861789012e-05
0.00049290028335235
-6.44591324312706e-08
-6.39484318364683e-06
0.000473412992227944
5.33541363530925e-06
2.43675113353218e-05
0.000424052050519899
1.57817996760804e-05
-3.57677742803648e-06
0.000423331496052345
3.79807529406325e-06
-0.000226705536273282
0.000617956502875641
1.5027825527237e-06
-0.000530312989637281
0.000290549187360525
-8.65788081765462e-06
-0.000381873880859162
1.85349200186005e-07
-7.38377142990047e-05
5.77757499270371e-05
4.01238181433674e-05
-4.75551581436892e-06
0.000237101829934833
-0.000154027031414792
-2.20598550996438e-06
0.000399243415751145
-6.29050016267029e-05
5.91467692058381e-06
0.000467104850968081
0.00017155766717837
3.03362020955155e-05
0.000478649649051288
0.000152719597744903
3.23113998122338e-05
0.000478311760873621
9.76151503056721e-05
2.71495117195974e-05
0.000481957612372008
3.74897971213374e-05
2.52644263103547e-05
0.000458856500441921
5.07890888011924e-05
1.41975277965419e-05
0.000414006373899588
4.95007257292086e-06
7.90922921903531e-07
0.000163789200897701
-0.000335443190233718
1.32546782086295e-05
0.00037359917433308
-0.0013888783975742
1.69988747011327e-05
0.000660555751463671
-0.00245892106298775
3.42850237088001e-06
0.000405967302254361
-0.00189547328243439
6.89435330616288e-07
5.48462126748157e-05
-0.000564507530140137
-8.196063921413e-07
-5.27222754694739e-05
-9.68508663131643e-08
0.000263585494429109
-0.000251441726533221
2.98191457882981e-05
0.000484635199974555
-0.00032618134620445
-2.37297867875993e-05
0.000518405777228486
-8.60099732290763e-05
-4.23661775328141e-06
0.000523770649659686
0.000155522621278837
1.31016217250479e-05
0.000539671362146598
0.000138881925307377
9.2037334125466e-06
0.000576125402344056
6.65490702848573e-05
-2.24220071614689e-07
0.000605934300475951
-7.61628300307237e-07
-6.14670978682901e-06
0.000613658883838223
-4.57533631059335e-06
-2.45633132028966e-06
0.000576339805992806
3.1700893234769e-05
2.67780527492788e-06
0.000285044753567257
-0.000109551053216577
-2.72378037479923e-06
0.000182430267559506