/*--------------------------------*- C++ -*----------------------------------*\
  =========                 |
  \\      /  F ield         | OpenFOAM: The Open Source CFD Toolbox
   \\    /   O peration     | Website:  https://openfoam.org
    \\  /    A nd           | Version:  11
     \\/     M anipulation  |
\*---------------------------------------------------------------------------*/
FoamFile
{
    format      ascii;
    class       volScalarField;
    location    "0.0000900086";
    object      rho;
}
// * * * * * * * * * * * * * * * * * * * * * * * * * * * * * * * * * * * * * //

dimensions      [1 -3 0 0 0 0 0];

internalField   nonuniform List<scalar> 
900
(
1.41397324292537
1.41488535270476
1.41765221046696
1.41408360139436
1.4149730677683
1.41773089886478
1.41416168890265
1.41503221511198
1.41779792218232
1.41397457159577
1.4148897509406
1.41765232959456
1.4140855126111
1.41497836537972
1.41773310406522
1.41416132081101
1.4150314653399
1.41779707797835
1.41397324600761
1.41488537523511
1.41765228097365
1.41408360427662
1.41497308671505
1.41773095837953
1.41416168977134
1.41503222054763
1.41779794147687
1.41397456148422
1.41488969744492
1.41765215682143
1.41408550508555
1.41497832552021
1.41773294993575
1.41416131042793
1.41503141411741
1.41779695176711
1.41397321603819
1.41488519760822
1.41765170673174
1.41408357628596
1.41497293336894
1.41773047899736
1.41416168175571
1.41503217474064
1.4177977743966
1.41397456043734
1.41488968947735
1.41765214329032
1.41408550417892
1.41497831960169
1.41773293681605
1.41416130926604
1.41503140738703
1.41779693590445
1.41960291068107
1.41918324605259
1.41225878583307
1.41967115038906
1.41923561566291
1.41229607905259
1.41971590698586
1.4192689074236
1.41231554367609
1.41960430672368
1.41918430593037
1.41226312477831
1.4196731505442
1.41923677492761
1.41229951692459
1.41971585490741
1.41926911519904
1.41231597300476
1.41960300899658
1.41918342006821
1.4122589265966
1.41967123543109
1.41923577409694
1.41229622512266
1.41971593027651
1.41926893187364
1.41231553908447
1.41960400209052
1.41918379269817
1.41226251928061
1.41967301979476
1.41923655606681
1.41229918892196
1.41971548851056
1.4192686768543
1.41231570650347
1.41960196646309
1.41918198223453
1.41225784276222
1.41967037545399
1.41923443457003
1.41229510127247
1.41971573896374
1.41926871824485
1.41231545574318
1.41960399083205
1.41918375013656
1.41226243289064
1.41967301763762
1.41923654940869
1.41229914212496
1.41971544025295
1.41926859657334
1.41231566526581
1.39491755857817
1.3949442147578
1.39495125825728
1.39492166385516
1.39494787432305
1.39495212353865
1.39491765494185
1.39494438506067
1.39495123051876
1.39492127552794
1.39494797741433
1.39495235556321
1.39491690754561
1.39494313755179
1.39495139398409
1.39492121757984
1.39494800107018
1.39495240022595
1.37265135625452
1.37265931251563
1.37266349475419
1.37265619394766
1.37266479666073
1.37266631512459
1.372651365699
1.37265934361769
1.37266349869855
1.37265591433683
1.37266487298818
1.37266636706081
1.37265124280979
1.37265908704029
1.37266348097176
1.37265586912199
1.37266489431893
1.37266637424764
1.34821917680211
1.34823379339191
1.3482340798209
1.34821563279036
1.34822821214601
1.34823454713631
1.34821916770899
1.3482337905759
1.34823407867921
1.34821509472704
1.34822782988565
1.34823451821138
1.34821920279897
1.34823379343377
1.3482340695032
1.34821500168199
1.3482277659846
1.34823451619439
1.32102509130848
1.32101295958678
1.32101486107188
1.32102923748893
1.32102360659622
1.32101465532168
1.32102510487144
1.32101296698599
1.32101486601592
1.32102878151546
1.32102328449146
1.3210146103635
1.32102501536292
1.32101290783608
1.32101480263389
1.32102869660503
1.32102322185891
1.32101460017027
1.29024897344377
1.29027844840851
1.29027465636367
1.29024576274556
1.29026544879196
1.29026917411339
1.29024898586326
1.29027845659083
1.29027465975537
1.29024517334726
1.29026497832673
1.29026908941057
1.2902489075342
1.29027839936448
1.29027462778154
1.29024506607777
1.29026489275894
1.29026906822721
1.25172892348106
1.25165249246158
1.25162949705964
1.25172671117538
1.25167766048933
1.25163389813344
1.25172892806519
1.25165249171108
1.25162950141529
1.25172652119516
1.25167747989894
1.25163381715144
1.25172891261868
1.2516525070135
1.25162947351757
1.25172648473086
1.25167744429353
1.25163380372631
1.20908127020453
1.20897338475931
1.20891882931306
1.20901584960256
1.20894792683088
1.20891653250436
1.20908128404769
1.20897339455691
1.20891883464723
1.20901576184644
1.20894785936371
1.20891652676922
1.20908119550279
1.20897333367533
1.20891880208642
1.20901574526608
1.20894784635607
1.20891652545248
1.15303969306756
1.1531786602434
1.15334811979393
1.15312324256369
1.15323594180975
1.15335668001402
1.15303970502018
1.15317866859369
1.15334812635618
1.15312315989807
1.15323587067109
1.15335664707281
1.15303962840092
1.15317861618252
1.15334808510807
1.15312314435111
1.15323585724159
1.15335664082613
1.41857433864568
1.41870194469546
1.41874725633657
1.4185745942069
1.41870238092084
1.41874711123788
1.41857433888433
1.4187019450003
1.41874725648574
1.41857459392361
1.4187023805341
1.41874711029565
1.41857433680832
1.41870194215884
1.41874725566928
1.41857459375967
1.41870238031862
1.41874711014169
0.351523385606852
0.447969496564168
0.538729813576738
0.656765347111906
0.761971861780051
0.79853532238231
0.761399466784164
0.637015163682387
0.510324202814455
0.502896264549409
0.871784743522013
1.36956060219228
1.41239021873111
1.23247314584893
1.14425170059139
0.318479142503563
0.257312493174116
0.28647693376002
0.341349134667297
0.427171490270181
0.478782933210616
0.457248313319042
0.400089455635478
0.379046018674987
0.326034689637267
0.484114151880244
1.03364692318346
1.40145501643332
1.34790715556853
1.16665108468208
0.280172038450785
0.149032311581549
0.172950840589026
0.231210676230389
0.262935647367407
0.300161255976374
0.29777656535295
0.286039603435635
0.276736743440174
0.248570411681662
0.318302563201109
0.785690615973242
1.41086582443769
1.47317984432991
1.19855873671419
0.202679672889455
0.0815261901830056
0.0925362481566165
0.157817061205603
0.217664636280131
0.258480617815078
0.245285146959872
0.230084081246193
0.211569845737427
0.205420315761871
0.250414372289277
0.536175324797586
1.24174725233609
1.55212621906592
1.23654486614884
0.435054603167593
0.378759517364472
0.471223349416167
0.600782735472815
0.725406851333756
0.789642689579209
0.789646752806089
0.721227394412361
0.616162911862424
0.529724788544129
0.83499713100069
1.33290177901021
1.39932672819603
1.23470451336751
1.14483772191121
0.443950047115052
0.328932745969695
0.280796104854897
0.322016363411492
0.411180036715159
0.482309995964207
0.480068289069884
0.443827052625884
0.39141106380119
0.327932972974202
0.480166677062398
1.0305813198742
1.38696280196517
1.34929934335304
1.16908934603338
0.386081238456132
0.217277480179792
0.212445783927736
0.23257988018943
0.267949471599849
0.30263013037885
0.306366019208115
0.297570223647968
0.278374851589577
0.238821376257106
0.304421567568454
0.792224517446241
1.39559076258086
1.46997468779816
1.20159787512475
0.282131066342503
0.135349423241857
0.132604896979078
0.175848619413597
0.227605819298711
0.263813709481192
0.24028111411297
0.222864815278457
0.206381075043713
0.197580217036225
0.247202657910043
0.540242581361587
1.23674926677398
1.54244646827988
1.23932956140623
0.351523400348346
0.44796950285665
0.538729772550461
0.656765306492251
0.761971886742742
0.79853537949043
0.761399547581253
0.637015328518289
0.510324288204843
0.502896297176774
0.87178472738672
1.36956055559273
1.41239016703076
1.23247313231619
1.14425170009832
0.318479097521387
0.257312474014113
0.286476919491222
0.341349136527904
0.42717152133005
0.478783002316653
0.457248405026112
0.400089565666201
0.379046099961964
0.326034712585743
0.484114178671263
1.0336469570696
1.40145502312979
1.34790715023484
1.16665108335735
0.280171989953174
0.149032312874734
0.172950835271559
0.231210661557971
0.262935654060258
0.300161295590475
0.297776602181031
0.286039658904583
0.276736784673076
0.248570437408899
0.318302586106568
0.785690653796078
1.41086582611132
1.47317983829068
1.19855873558393
0.202679618255078
0.0815261949153432
0.0925362589931532
0.157817061014
0.217664643532286
0.258480656628278
0.245285146011737
0.230084089006167
0.211569859278223
0.205420324155381
0.250414361240024
0.536175330158545
1.24174725177436
1.5521262158117
1.23654486543433
0.435054213131463
0.378759312426543
0.471222958659405
0.600781845999042
0.72540586201734
0.789641889217339
0.789646460089669
0.72122672102595
0.616162617737999
0.52972464890433
0.834996838076274
1.33290176801109
1.39932688216174
1.23470455150651
1.14483772524784
0.44395031180299
0.32893295032995
0.280795896107917
0.322015959056172
0.411179284936794
0.482309140240934
0.480067671256555
0.443826561519834
0.39141077078391
0.327932943577041
0.480166265337524
1.03058081634243
1.38696279196591
1.34929938916219
1.16908935695865
0.386081569761763
0.217277729524101
0.212445397851941
0.232579806958686
0.267949157292932
0.302629600485328
0.306365600469634
0.297569876303719
0.278374659964224
0.238821529934326
0.304421575572772
0.792224132987597
1.39559067176923
1.46997472926698
1.20159788973802
0.282131187413805
0.135349496173832
0.132604424465821
0.175848355374157
0.227605546416763
0.263813286207744
0.240280967033795
0.222864743412864
0.206380927433153
0.197580178966217
0.247202536203773
0.54024246604997
1.23674914758514
1.54244647885375
1.23932956807699
0.351523357624635
0.447969436288905
0.538730126738138
0.656765601547607
0.761971341967018
0.798534443388518
0.761398374387183
0.63701336790773
0.510323322790361
0.502896040628781
0.871785115626991
1.36956111361335
1.41239068332437
1.23247325100019
1.14425170289769
0.318479479506012
0.257312631416181
0.286477059588607
0.341349110699369
0.427171112497101
0.478782159125348
0.457247304482622
0.400088288850686
0.379045168828638
0.326034474060791
0.48411399541563
1.03364676884054
1.40145498876127
1.34790719322279
1.16665109230659
0.2801723232794
0.14903230156462
0.172950898002209
0.231210764133824
0.262935529349499
0.300160848448186
0.297776160156492
0.286039024978123
0.276736285044203
0.248570136041329
0.318302367826844
0.785690429454779
1.41086586942072
1.47317988224786
1.19855873368961
0.202679994583818
0.0815261494194419
0.0925361639014229
0.157817037149245
0.217664546456468
0.258480272748966
0.245285100446778
0.230083962044887
0.21156968043598
0.205420198482029
0.250414457086271
0.536175335175404
1.24174737076091
1.55212625769665
1.23654486221315
0.435054190008664
0.378759299172497
0.471222922545651
0.600781776104409
0.72540578004873
0.789641813337926
0.789646426631256
0.721226653252312
0.616162603248761
0.529724650053964
0.834996822553075
1.33290178018366
1.39932690851674
1.23470455923396
1.14483772561734
0.443950357711828
0.328932979170418
0.280795872713872
0.322015919868851
0.411179208845553
0.482309044106576
0.480067597182669
0.443826507169444
0.391410746408987
0.327932943916199
0.480166232870174
1.03058077450856
1.38696279061661
1.34929939694105
1.16908935848667
0.386081623539428
0.217277757589996
0.212445352517918
0.232579805041418
0.267949126838941
0.302629542760398
0.306365556654349
0.297569843707754
0.278374644797809
0.238821544369138
0.304421572181482
0.79222409304095
1.39559066053415
1.46997473747667
1.20159789259133
0.282131219039779
0.13534950287944
0.132604366653181
0.175848325960231
0.227605518250699
0.263813237234686
0.240280955513545
0.22286474211415
0.206380915956047
0.197580175314545
0.247202519551442
0.540242449847369
1.2367491295935
1.54244648285717
1.23932957142052
0.455720858320687
0.165207332297983
0.0798620884241204
0.115650174003778
0.200628505666947
0.2655555559761
0.244384840157614
0.210924174188928
0.181403526268916
0.182495715741367
0.227515425356359
0.414679257133767
1.02315217060313
1.54471344081175
1.26461601851619
0.607374270195111
0.240120216848144
0.0884472368916042
0.0987796243938937
0.196403518618925
0.281569887812225
0.260468025144148
0.216048422842056
0.174741920993713
0.173722166934075
0.220939721927215
0.393684987804407
0.861289638153859
1.49500844363025
1.27828130333641
0.709960476223804
0.317289441442335
0.103704818285017
0.0956527318797747
0.220094242440486
0.299580889462948
0.271031476071182
0.220063847402625
0.172081826183423
0.169979046681034
0.214761185996128
0.38170750278203
0.781503249174512
1.45237127999357
1.28641094630656
0.532705443215231
0.235356424153933
0.104111186551026
0.138519463000557
0.2076309502175
0.272627588882926
0.237443275157324
0.198884101541468
0.172548463844833
0.173994963447411
0.221205595281803
0.420456485295487
1.02744154203904
1.53848196495296
1.26483407289555
0.665431221310822
0.306514153539555
0.112389632700092
0.117529287389235
0.197440348911389
0.285305288071179
0.252698060229962
0.203116098976952
0.16653091143301
0.16699728681336
0.214413409070511
0.380931750234446
0.860058028321246
1.48879049018923
1.27869998270542
0.721697098967875
0.349379303728855
0.114955108980775
0.103373698696408
0.218794248775006
0.298980035322001
0.273438375494636
0.213517299869169
0.168571141084952
0.168255839771615
0.213823583779283
0.375350594219903
0.783041132525837
1.45204629952404
1.28606397203987
0.455720801894037
0.165207298837705
0.0798620895972249
0.115650181689279
0.200628506404269
0.265555553181362
0.244384808222651
0.210924158481974
0.181403519746046
0.182495707559802
0.22751540177463
0.414679233300854
1.02315215991533
1.54471343678289
1.26461601816384
0.607374234845994
0.240120186228604
0.0884472412197667
0.0987796347051181
0.196403504158151
0.281569884416517
0.260467999058061
0.216048399259815
0.1747419120786
0.173722162995292
0.220939704948521
0.393684972070012
0.861289627380051
1.49500843828905
1.27828130279574
0.709960462233429
0.317289423871805
0.103704821797603
0.0956527335164107
0.220094241032059
0.299580891414734
0.271031459494802
0.220063828943398
0.172081822969677
0.169979044689073
0.214761181215896
0.381707497871407
0.781503258179423
1.45237127850803
1.28641094536457
0.532705686763878
0.235356646578601
0.104111017807646
0.138519194782799
0.207630881785066
0.272627466851514
0.237443370391271
0.198884204164722
0.17254848533263
0.173994957914049
0.221205565753866
0.42045641496111
1.0274416369464
1.53848200214375
1.26483406817957
0.665431368649681
0.306514359802668
0.112389527563888
0.117529098305132
0.197440591136663
0.285305343282036
0.252698232339879
0.203116226668845
0.166531005015646
0.166997323378263
0.214413412271086
0.380931757595493
0.860058188464571
1.48879053206351
1.27869997397002
0.721697132720359
0.349379411365945
0.114955017801634
0.103373644744384
0.218794329994514
0.298980018063037
0.273438482149751
0.213517405924307
0.168571163768336
0.168255855119743
0.213823592187804
0.375350650370167
0.78304123799332
1.45204634432491
1.28606396436188
0.455721187607913
0.165207537008201
0.0798620691450675
0.115650115568889
0.20062844324493
0.265555521776449
0.244385063375225
0.210924282037219
0.181403568181782
0.18249576841983
0.227515642403927
0.414679488171156
1.02315235334471
1.54471350388108
1.2646160151333
0.607374478499932
0.240120405356005
0.0884471930151163
0.0987795469403174
0.196403550683605
0.281569869630892
0.2604682158042
0.216048606610817
0.174741984738352
0.173722191315174
0.220939896138842
0.393685149948874
0.861289767727588
1.49500852777839
1.27828130485542
0.709960557883031
0.317289553171979
0.103704786086189
0.0956527240695905
0.220094204559997
0.299580865224636
0.271031604714612
0.220063995595007
0.172081847617798
0.169979057988371
0.214761238082043
0.381707555993568
0.781503149158489
1.45237127905161
1.2864109496379
0.53270573039924
0.235356680507781
0.104110998627858
0.138519161866945
0.207630881225449
0.272627456596758
0.237443385883107
0.198884220148886
0.172548490669339
0.17399495899022
0.221205558907495
0.420456399700385
1.02744163958689
1.53848200634646
1.26483407027201
0.665431393480294
0.306514391773326
0.112389515472521
0.117529075239874
0.197440628047019
0.285305353131748
0.252698255071347
0.203116243748461
0.16653101730002
0.166997328569884
0.214413410620899
0.380931755586066
0.860058201622931
1.48879053737453
1.27869997491002
0.721697137596961
0.349379428217711
0.114955005053725
0.103373638325882
0.218794345493986
0.298980016603795
0.273438495504495
0.213517419360702
0.168571167466039
0.168255857457713
0.213823592596695
0.375350655169631
0.783041247455233
1.45204634846441
1.28606396415209
)
;

boundaryField
{
    inlet
    {
        type            calculated;
        value           nonuniform List<scalar> 
24
(
1.41862953621136
1.41862953621136
1.41862953621136
1.41862953621136
1.41862953621136
1.41862953621136
1.41862953621136
1.41862953621136
1.41862953621136
1.41862953621136
1.41862953621136
1.41862953621136
1.41862953621136
1.41862953621136
1.41862953621136
1.41862953621136
1.41862953621136
1.41862953621136
1.41862953621136
1.41862953621136
1.41862953621136
1.41862953621136
1.41862953621136
1.41862953621136
)
;
    }
    outlet
    {
        type            calculated;
        value           nonuniform List<scalar> 
156
(
0.503273421526829
0.981456850955832
1.09254973388519
1.09249418314145
1.0994653294629
1.10087245095615
1.09976515000626
1.07174117859722
1.09700147440195
0.5591800510468
0.74807814841852
1.003974532714
1.08204433140923
1.1127606209139
1.13465142085201
0.692916829394148
0.397747683809666
1.1532090553226
1.1174739314797
1.09137039696043
1.08198100555205
1.09474106959279
1.06693035841627
1.07760463308213
0.604904592576485
0.768391436629305
1.01098816638727
1.08309709509864
1.11168478729216
1.13448664522047
0.503273376459046
0.981456646536095
1.09254954625675
1.09249405247468
1.09946529422108
1.10087243523367
1.09976514954092
1.07174123713728
1.09700143011531
0.559180136834416
0.748078217056833
1.00397455682062
1.08204433530227
1.11276062177838
1.13465142091505
0.692917609652079
0.3977474602947
1.1532093626696
1.11747403624159
1.09137035653912
1.08198081679469
1.09474131851601
1.06692982867614
1.07760482403871
0.604903879443302
0.768390609394884
1.01098777749508
1.08309705563262
1.11168479472998
1.13448664492936
0.503273822347136
0.981457936096012
1.09255096454147
1.09249500305454
1.09946527604436
1.10087233331924
1.09976495969684
1.07174052317926
1.09700183495989
0.559179313966203
0.748077664865407
1.00397441459992
1.08204430273772
1.11276061217708
1.13465142108032
0.69291771643679
0.397747440443487
1.15320943079953
1.1174741031673
1.09137039231441
1.08198082676024
1.09474136494312
1.0669297931695
1.07760485569761
0.604903835463853
0.768390557277462
1.01098774789506
1.08309705129381
1.11168479449187
1.13448664490942
1.13510137523236
1.1307966635871
1.1228367336207
1.11341779603563
1.10426842326183
1.09599069625664
1.08852968850713
1.1349835506731
1.13019400208925
1.12183046661447
1.11216135945394
1.10386447586161
1.09561252094557
1.08867390949897
1.13510137533387
1.13079666368322
1.12283673357858
1.11341779605094
1.10426842333651
1.09599069629459
1.08852968876631
1.13498355116045
1.13019400307733
1.1218304670506
1.11216135879524
1.10386447865444
1.0956125274778
1.08867391618286
1.13510137507101
1.13079666262519
1.12283673582468
1.1134177984041
1.10426842559394
1.09599069853054
1.08852968903607
1.13498355114329
1.130194003049
1.12183046681243
1.11216135801922
1.10386447794658
1.09561252726329
1.08867391652199
0.737540224363912
0.558934921374574
0.424899681044592
0.501852428023454
0.829073915855019
0.728310191753333
0.729490801687116
0.862210927543428
0.737540263243914
0.558934895912989
0.424899630817157
0.501852333887493
0.829074109525021
0.728310919102239
0.729491106927076
0.862211730556701
0.737540083671506
0.558935203001572
0.424899820374812
0.501852943025845
0.829074136470619
0.72831102501528
0.729491169443688
0.862211859125369
)
;
    }
    sides
    {
        type            calculated;
        value           nonuniform List<scalar> 
84
(
1.41397324292537
1.41488535270476
1.41765221046696
1.41397457159577
1.4148897509406
1.41765232959456
1.41397324600761
1.41488537523511
1.41765228097365
1.41397456148422
1.41488969744492
1.41765215682143
1.41397321603819
1.41488519760822
1.41765170673174
1.41397456043734
1.41488968947735
1.41765214329032
1.41960291068107
1.41918324605259
1.41225878583307
1.41960430672368
1.41918430593037
1.41226312477831
1.41960300899658
1.41918342006821
1.4122589265966
1.41960400209052
1.41918379269817
1.41226251928061
1.41960196646309
1.41918198223453
1.41225784276222
1.41960399083205
1.41918375013656
1.41226243289064
1.39491755857817
1.39492166385516
1.39491765494185
1.39492127552794
1.39491690754561
1.39492121757984
1.37265135625452
1.37265619394766
1.372651365699
1.37265591433683
1.37265124280979
1.37265586912199
1.34821917680211
1.34821563279036
1.34821916770899
1.34821509472704
1.34821920279897
1.34821500168199
1.32102509130848
1.32102923748893
1.32102510487144
1.32102878151546
1.32102501536292
1.32102869660503
1.29024897344377
1.29024576274556
1.29024898586326
1.29024517334726
1.2902489075342
1.29024506607777
1.25172892348106
1.25172671117538
1.25172892806519
1.25172652119516
1.25172891261868
1.25172648473086
1.20908127020453
1.20901584960256
1.20908128404769
1.20901576184644
1.20908119550279
1.20901574526608
1.15303969306756
1.15312324256369
1.15303970502018
1.15312315989807
1.15303962840092
1.15312314435111
)
;
    }
}


// ************************************************************************* //
