/*--------------------------------*- C++ -*----------------------------------*\
  =========                 |
  \\      /  F ield         | OpenFOAM: The Open Source CFD Toolbox
   \\    /   O peration     | Website:  https://openfoam.org
    \\  /    A nd           | Version:  11
     \\/     M anipulation  |
\*---------------------------------------------------------------------------*/
FoamFile
{
    format      ascii;
    class       volScalarField;
    location    "0.0000900086";
    object      T;
}
// * * * * * * * * * * * * * * * * * * * * * * * * * * * * * * * * * * * * * //

dimensions      [0 0 0 1 0 0 0];

internalField   nonuniform List<scalar> 
900
(
1898.16441665883
1898.52612395974
1899.62096255489
1898.20775773568
1898.56065871578
1899.65201033604
1898.2391421372
1898.58430300054
1899.67847793158
1898.16492266907
1898.52782993862
1899.62097770652
1898.20851146
1898.56274846394
1899.6528699228
1898.23900078103
1898.58401300462
1899.6781481451
1898.16441787303
1898.52613285712
1899.62099036374
1898.20775887616
1898.56066621291
1899.6520338362
1898.2391424839
1898.58430516235
1899.67848557104
1898.16491863192
1898.5278087259
1899.62090948825
1898.20850846638
1898.56273268101
1899.65280904691
1898.2389966678
1898.58399273804
1899.67809829875
1898.16440603139
1898.52606265224
1899.62076363994
1898.2077477748
1898.56060549616
1899.65184447204
1898.23913927519
1898.58428694211
1899.67841947302
1898.16491821818
1898.52780557498
1899.62090413962
1898.20850810823
1898.56273034116
1899.65280386267
1898.2389962075
1898.58399007391
1899.67809202842
1900.38857423016
1900.22392966039
1897.49132297896
1900.41540001392
1900.24445079678
1897.50593743509
1900.43289835042
1900.25736018201
1897.51339266646
1900.3891701662
1900.22439306248
1897.49305239925
1900.41621215507
1900.24493117772
1897.50729920425
1900.43287741928
1900.2574416366
1897.51356047177
1900.38861293293
1900.2239983956
1897.49137890185
1900.41543340913
1900.24451323681
1897.50599529911
1900.43290740251
1900.25736973438
1897.51339067952
1900.38904972453
1900.22419039841
1897.49281264395
1900.41616017685
1900.24484425814
1897.50716915152
1900.43273286522
1900.25726858208
1897.51345558957
1900.38820235318
1900.22343148786
1897.49094998034
1900.41509504678
1900.24398596849
1897.50555167138
1900.43283239574
1900.25728648695
1897.51335996684
1900.3890453857
1900.22417362699
1897.49277829952
1900.41615941372
1900.24484155011
1897.5071504015
1900.43271393411
1900.25723687168
1897.51343916812
1890.58758544475
1890.59822949693
1890.60093007168
1890.58921329341
1890.59967830169
1890.60127356882
1890.58762408119
1890.59829750698
1890.60091841553
1890.58905878858
1890.5997203031
1890.60136830441
1890.58732572219
1890.59780021367
1890.60098786553
1890.58903555414
1890.59972977004
1890.60138654521
1881.61203978146
1881.61530766788
1881.61698247069
1881.61399857198
1881.61752494128
1881.61812017808
1881.61204359277
1881.61532015653
1881.6169838156
1881.61388616897
1881.61755749802
1881.6181433248
1881.61199492311
1881.61521755109
1881.61697864229
1881.61386781347
1881.61756634261
1881.61814652091
1871.62274273538
1871.6288037585
1871.62890686756
1871.62126725674
1871.62649479045
1871.6290966075
1871.62273920504
1871.62880214279
1871.62890629684
1871.62104696259
1871.62633929611
1871.62908578243
1871.62275303494
1871.62880664003
1871.62890370854
1871.62100870644
1871.6263132131
1871.62908507727
1860.32585524728
1860.32077702686
1860.32155719179
1860.32759065911
1860.32523549862
1860.3214696212
1860.32586095036
1860.32077985654
1860.32155906884
1860.32740111207
1860.32510222672
1860.32145218839
1860.32582354562
1860.32075686251
1860.32153390198
1860.32736577337
1860.32507625259
1860.32144811833
1847.29854254746
1847.31119884221
1847.30954180332
1847.29708023171
1847.30559702352
1847.30718896548
1847.29854788291
1847.31120238505
1847.30954348427
1847.29683126585
1847.30539739005
1847.30714918654
1847.29851410164
1847.31117744089
1847.30952626779
1847.29678591661
1847.30536107046
1847.30713986496
1830.70171138153
1830.66936475851
1830.6599405525
1830.70125661943
1830.68065874936
1830.66188793147
1830.7017133176
1830.66936452556
1830.65994252766
1830.70117606731
1830.68058203495
1830.66185063298
1830.70170694902
1830.6693704363
1830.65992986659
1830.70116055337
1830.68056684902
1830.66184452446
1811.67645458552
1811.63125682598
1811.61119637437
1811.64608974846
1811.619479987
1811.61001966158
1811.67646071711
1811.63126119338
1811.61119879937
1811.64605158739
1811.61945155983
1811.61001697748
1811.67642110759
1811.63123372637
1811.61118377338
1811.64604439628
1811.6194460893
1811.61001639971
1785.97248876078
1786.03661501391
1786.12160337291
1786.0139201111
1786.06571233594
1786.12567117579
1785.97249425667
1786.03661885931
1786.12160642358
1786.01388146762
1786.065679202
1786.12565583562
1785.97245850702
1786.03659447511
1786.12158717656
1786.01387427952
1786.06567298652
1786.12565292948
1899.97890760244
1900.03050472222
1900.0495290453
1899.97900586941
1900.03067727549
1900.04947412547
1899.97890769559
1900.03050484206
1900.04952910508
1899.9790057557
1900.03067712159
1900.0494737524
1899.97890688429
1900.03050371961
1900.04952877108
1899.97900569123
1900.03067703633
1900.04947369089
421.273719269947
637.740539272101
591.411763283216
491.372553949092
426.497380966019
407.439596936399
426.452800907746
487.787583157472
623.10513605791
600.340302934848
459.094822477571
347.789064734971
321.476411844841
309.707213306131
301.269021872971
444.685019311125
1067.88130727455
1169.02371008652
1011.37050273514
836.952141825515
741.94391382419
767.474117231668
827.03067690917
802.378266688989
791.758530653041
729.652617734565
487.950472263164
339.761267242381
315.715128970187
302.696333955041
409.389794194802
1110.98894036221
1401.48504738193
1378.82240802038
1254.40842053225
1126.91678712539
1130.67446574121
1127.51293627832
1048.96262450362
1046.08640909832
1073.14033982963
754.407561893601
401.847906059801
330.657433942358
305.009890071115
634.288308952807
819.552898405973
1076.94465006505
1425.04982912424
1498.09194328742
1465.25619103279
1418.88443332093
1368.94934084687
1277.51041248762
1247.92657226429
1351.37445539897
1091.74037532418
532.447643863179
351.699010949036
307.596385062611
468.069967826666
821.477666422694
742.209765900838
553.096997157864
441.93018018673
400.643926713098
407.42702068388
429.770499304665
506.118929948854
551.308075728646
445.804090509893
343.980220188345
320.551474169442
309.999769822406
301.342688479089
478.029347475383
1024.55520388919
1196.64701556907
1053.19540668533
860.616389072889
732.48187038023
725.121053932465
733.405348763245
756.848663979335
766.129040852609
727.181033193204
483.053566630642
337.34186944007
315.925157012322
302.94105484614
531.494195226619
1209.07906334903
1343.86189831074
1324.76622956663
1235.47481165112
1110.53397405736
1077.81870821859
1053.47966200863
999.413172819891
1018.73128073121
1082.25177282705
756.354314567617
397.849290494706
330.264705949961
305.328495448244
892.459201976004
1064.70688305013
1185.49281103466
1355.31302196006
1456.54864157129
1434.54649169931
1370.47955519535
1321.07024633682
1242.70556388212
1239.67213355786
1381.33590109644
1109.82328562799
529.9487744271
350.061261724457
307.896635653524
421.273675167483
637.740411642698
591.411645869159
491.372506692292
426.497348722215
407.439560238518
426.45275633138
487.78750803925
623.10500002169
600.340204327136
459.094777416504
347.789053560118
321.476408639483
309.707212433463
301.269021823916
444.685018179595
1067.88124615176
1169.02356665158
1011.3704110998
836.952052461777
741.943810318516
767.473971315868
827.030447287196
802.378060272805
791.758405424559
729.652533316627
487.950436520572
339.761263638582
315.715128655012
302.696333933766
409.389811816171
1110.98902870632
1401.48497110484
1378.82232951993
1254.40832738762
1126.91668051517
1130.67424959073
1127.51268461111
1048.96234030898
1046.08626158365
1073.14023894402
754.407494499778
401.847895967555
330.657433438065
305.009890115926
634.288332429811
819.553013729742
1076.94473011704
1425.04977952126
1498.09189152586
1465.25612391745
1418.88426799834
1368.94917410189
1277.51020760705
1247.92647004614
1351.37437178004
1091.74032919564
532.447634496734
351.699010620989
307.596385112783
468.070870027842
821.478247669381
742.210737540244
553.097892386854
441.930756125236
400.64422160901
407.427309588505
429.770509616822
506.119239414197
551.308722306894
445.804582003298
343.980368472828
320.551490879085
309.999768176984
301.342688594679
478.029009985965
1024.55436747442
1196.64776866792
1053.19681325878
860.617958987424
732.483003694928
725.122213265461
733.406466977462
756.849637627713
766.12974286031
727.181773240749
483.053996482564
337.341919749248
315.925158573219
302.941054746726
531.493882602303
1209.07666604688
1343.86224587055
1324.76748573387
1235.47648566343
1110.53538766629
1077.82034915248
1053.4814950829
999.414699760956
1018.73252616521
1082.25269724596
756.354940942335
397.849395025697
330.264711432105
305.32849515898
892.459729728319
1064.7060937885
1185.49215699247
1355.31386279263
1456.54950520445
1434.54731125395
1370.48072602253
1321.07162224158
1242.70665597736
1239.67299984044
1381.33620139057
1109.82360878709
529.948849594592
350.061264706538
307.896635091703
421.274026342025
637.741263397006
591.412488288351
491.372843919376
426.497632781485
407.439973381955
426.453296826138
487.788403221699
623.106456900973
600.341168259435
459.095149392027
347.789132003199
321.476439272168
309.707221179651
301.26902197646
444.684982250468
1067.88146715066
1169.02451376921
1011.37094949935
836.952768989873
741.944939512275
767.475636643075
827.033055086169
802.380378175773
791.759733237458
729.653301640671
487.950699174641
339.76128502594
315.715130923858
302.696334111596
409.389651294187
1110.98823079473
1401.48542981511
1378.82273595915
1254.40897027335
1126.91776894836
1130.67654920547
1127.51543216732
1048.96550136746
1046.08794931542
1073.14125456804
754.408052989138
401.847954240705
330.657433803255
305.009889027309
634.288089806665
819.552133787045
1076.94415617473
1425.05018672682
1498.09227066724
1465.25673807281
1418.88586568322
1368.95089424699
1277.51244180128
1247.92762617159
1351.37525324443
1091.74069433195
532.447661204377
351.699006259814
307.596383918824
468.07096104036
821.478325888645
742.210874758611
553.098005436154
441.930826949013
400.644264974685
407.427352645915
429.770520498293
506.119266674635
551.308762574996
445.804613023739
343.980380045803
320.551493120063
309.999768532644
301.342688617502
478.02897496717
1024.55429381152
1196.64787667925
1053.1969930792
860.618147497953
732.483143138005
725.122355293227
733.406600330176
756.849735095762
766.129792615244
727.181823483036
483.054031076184
337.341924769684
315.925159151656
302.941054775897
531.493846561025
1209.07640827435
1343.86230098925
1324.76765130465
1235.47668758333
1110.53554895382
1077.82053665662
1053.48169948891
999.41485063585
1018.7326366876
1082.25276605722
756.354994255045
397.849405887512
330.264712564786
305.328495254067
892.45977460056
1064.70598946386
1185.49207027474
1355.31395827909
1456.54960686607
1434.54740035479
1370.48086137318
1321.07177641406
1242.70676144525
1239.67307694246
1381.33621673988
1109.8236414328
529.948860797385
350.061265984546
307.896635288186
1418.44689763236
953.251396155897
820.441409744925
1181.45571084047
1492.03890035442
1609.70934786911
1551.82100419048
1468.30337174407
1380.17978016245
1361.07266091824
1531.79363967052
1402.31644791492
727.210975359024
377.48458511425
309.912809287377
1471.54210349726
1064.67551647571
813.364609162544
917.676777483328
1396.10797861328
1609.11703043632
1571.91447357153
1482.53333758101
1388.18105130238
1381.05513381894
1597.37523125196
1597.55742617877
910.202273138574
404.745239822511
311.9939721409
1527.15291317368
1163.9403611325
845.863214236181
847.036776873669
1340.00522271363
1593.75058816276
1556.83419203357
1466.8066305114
1375.06960519494
1373.95917499649
1594.69717631625
1709.53407104076
1034.40886674268
429.592187907571
313.906413816597
1473.4844212305
1106.22104808378
945.956542530376
1219.75214023245
1448.15382304636
1596.09149654794
1525.89369640013
1434.93844954046
1359.63652724535
1350.25396683707
1534.80524580487
1416.13648667722
726.268730891928
375.798812314515
309.922056853079
1514.69341389806
1169.71518134909
902.33896027014
1000.31248111256
1372.6998583185
1608.55720908158
1555.85744560611
1455.67014840894
1369.28639684019
1368.45021457899
1586.9043704749
1582.94152660506
902.711460835504
402.910458759371
312.026232324983
1535.68547497804
1202.33206489201
878.325880049969
879.110096608054
1333.49928510292
1592.91337182338
1558.78298998131
1451.26414050779
1363.60589370915
1367.74370161203
1595.17877029977
1698.98227125903
1033.29681587297
429.517055449199
313.854770910394
1418.44688386456
953.251347850807
820.441448979241
1181.45572747189
1492.03885803092
1609.70929951879
1551.82093343531
1468.30332623989
1380.17972804501
1361.07261381208
1531.79358870008
1402.31644362252
727.210981524113
377.484585550637
309.912809328762
1471.54208976001
1064.67548675199
813.364611824833
917.676839079768
1396.10793339423
1609.11708414939
1571.91447353912
1482.53331820687
1388.18104500205
1381.05513488261
1597.37521270552
1597.55745020103
910.202292481165
404.745241280502
311.993972168435
1527.15290545123
1163.940347973
845.863195331738
847.036775092057
1340.0052397812
1593.75063502187
1556.83419530231
1466.8066186122
1375.06960950225
1373.9591823079
1594.6971793938
1709.53408956235
1034.40888339599
429.592189592441
313.906413757636
1473.48448582552
1106.22123737786
945.955663893058
1219.75135837983
1448.15424835578
1596.09191986957
1525.89428182144
1434.93895609802
1359.63686950207
1350.25416884659
1534.80527894163
1416.1364010678
726.268670937431
375.798803830169
309.922055320898
1514.69345879467
1169.71532850221
902.338811995596
1000.31128694066
1372.70025437217
1608.5566810048
1555.85736147058
1455.67028820609
1369.28652257067
1368.45020173896
1586.90429912195
1582.94123975943
902.711236263503
402.910424013524
312.026229990605
1535.68549037996
1202.33211598355
878.325979482044
879.109889135811
1333.4991536105
1592.91287997351
1558.78286746327
1451.2642443977
1363.60580977528
1367.74357825473
1595.17864593855
1698.98210982144
1033.29670502819
429.517032448796
313.854768879496
1418.44698426202
953.2516906013
820.441152029842
1181.45578823203
1492.0391346384
1609.70966170956
1551.82154141908
1468.30372907427
1380.1802501599
1361.07310526595
1531.79416328074
1402.31643705763
727.21085692915
377.484572742731
309.912808097293
1471.54218809602
1064.67569121872
813.36458309058
917.676423735131
1396.1082489259
1609.11654330215
1571.91443879503
1482.53345112715
1388.18104908227
1381.05510080064
1597.37545398187
1597.55719347284
910.202077053719
404.745226292691
311.993971195847
1527.15295839989
1163.9404391441
845.863366686781
847.036813433359
1340.00506417952
1593.75019923078
1556.83414958999
1466.80669886684
1375.06953398604
1373.95909000096
1594.69716181838
1709.53388767711
1034.40870554951
429.592169121427
313.906413556282
1473.48449177165
1106.22126174244
945.955551444446
1219.75124425216
1448.15430463788
1596.09197288728
1525.89435398557
1434.93901841488
1359.63691021743
1350.25418544985
1534.80526886179
1416.13639383665
726.26867193387
375.798804383859
309.922055449193
1514.69346542584
1169.71535083794
902.338791852757
1000.31112675158
1372.70030725421
1608.55661434763
1555.85735215289
1455.67030821562
1369.28654167538
1368.45020151198
1586.90428461851
1582.94121115358
902.711218082535
402.910421736476
312.026229988597
1535.68549297854
1202.3321247069
878.32598832542
879.109860717034
1333.49914082827
1592.91281874772
1558.78285330612
1451.26426138294
1363.60580443424
1367.74356730802
1595.17863070774
1698.98209394247
1033.29669415853
429.517030398598
313.85476876098
)
;

boundaryField
{
    inlet
    {
        type            timeVaryingMappedFixedValue;
        fieldTable      T;
        value           nonuniform List<scalar> 
24
(
1899.99987997428
1899.99987997428
1899.99987997428
1899.99987997428
1899.99987997428
1899.99987997428
1899.99987997428
1899.99987997428
1899.99987997428
1899.99987997428
1899.99987997428
1899.99987997428
1899.99987997428
1899.99987997428
1899.99987997428
1899.99987997428
1899.99987997428
1899.99987997428
1899.99987997428
1899.99987997428
1899.99987997428
1899.99987997428
1899.99987997428
1899.99987997428
)
;
    }
    outlet
    {
        type            freestream;
        freestreamValue uniform 300;
        value           nonuniform List<scalar> 
156
(
300
300
300
300
300
300
300
300
300
599.620960079359
458.314736367915
347.360090236456
321.416037354701
309.637536086913
301.248302981907
300
821.265628246097
300
300
300
300
300
300
300
550.60773985321
445.024287532224
343.558015119511
320.51222391432
309.934633349376
301.319710773164
300
300
300
300
300
300
300
300
300
599.620861758351
458.314691595133
347.360079179453
321.416034164784
309.637535222332
301.248302934054
300
821.266211422649
300
300
300
300
300
300
300
550.608385968238
445.024777063799
343.558161628238
320.512240302988
309.9346316751
301.319710899428
300
300
300
300
300
300
300
300
300
599.6218225871
458.315060867684
347.360156880239
321.416064692766
309.637543883969
301.24830307457
300
821.266289776428
300
300
300
300
300
300
300
550.608426169472
445.024807970026
343.558173087342
320.512242523404
309.934632024692
301.319710922045
301.248302981907
302.659128314319
304.948222955975
307.509264011886
309.791108506914
311.83235865984
313.709285021358
301.319710773164
302.902519367189
305.269775424749
307.818689286034
309.812204079943
311.870549342258
313.658234916654
301.248302934054
302.659128292277
304.948222999058
307.509264060363
309.791108548312
311.832358689831
313.709284969099
301.319710899428
302.902519283922
305.269775161423
307.81868871078
309.812202558591
311.870547049056
313.658232921
301.24830307457
302.659128478508
304.948221923086
307.50926289025
309.791107326755
311.832357687919
313.709284698279
301.319710922045
302.902519312617
305.269775256349
307.818688900814
309.812202685113
311.870547048572
313.658232804763
300
300
300
300
300
300
300
300
300
300
300
300
300
300
300
300
300
300
300
300
300
300
300
300
)
;
    }
    sides
    {
        type            zeroGradient;
    }
}


// ************************************************************************* //
