/*--------------------------------*- C++ -*----------------------------------*\
  =========                 |
  \\      /  F ield         | OpenFOAM: The Open Source CFD Toolbox
   \\    /   O peration     | Website:  https://openfoam.org
    \\  /    A nd           | Version:  11
     \\/     M anipulation  |
\*---------------------------------------------------------------------------*/
FoamFile
{
    format      ascii;
    class       volVectorField;
    location    "0.0000900086";
    object      U;
}
// * * * * * * * * * * * * * * * * * * * * * * * * * * * * * * * * * * * * * //

dimensions      [0 1 -1 0 0 0 0];

internalField   nonuniform List<vector> 
900
(
(-0.233229554284186 -0.403999446583025 685.501610227161)
(-0.196667453970962 -0.340646541068298 684.917821092897)
(-0.169409972017486 -0.2935386163664 683.158962537923)
(-0.107005266968378 -0.18537176386947 685.371023040556)
(-0.0910300521582996 -0.157674457766489 684.818965498614)
(-0.0780899280285952 -0.135316240631599 683.102464080747)
(-0.0831310214504631 -0.144020581120422 685.130631968665)
(-0.0724025126124485 -0.125410147508919 684.621335220589)
(-0.0613590485052019 -0.106407514993581 682.957675340543)
(-0.466801252804691 -1.4711395320415e-06 685.501576197936)
(-0.396043450243275 -5.98964896572495e-07 684.915889617911)
(-0.340527483398279 -2.2618864022324e-06 683.159752291105)
(-0.215279933540732 -1.44640005975874e-06 685.371579329768)
(-0.186508678860411 1.27421314541739e-07 684.818431472104)
(-0.158637887013822 -9.15774796336237e-06 683.104243408503)
(-0.166952776346264 -1.0417398111981e-06 685.130749416888)
(-0.146620896352799 2.29245188026722e-06 684.620952816492)
(-0.123868206246957 7.05005525261977e-07 682.957527878299)
(-0.233229835915839 0.40399696403564 685.5016084282)
(-0.196669896396484 0.340651167913691 684.917809171495)
(-0.169399801751091 0.293514881561884 683.158934149435)
(-0.107005758962381 0.18536982255364 685.37102148714)
(-0.0910335429364115 0.157681279622407 684.8189551527)
(-0.0780919850325441 0.13531352335483 683.102441286159)
(-0.0831313599786158 0.144018303689253 685.130631339376)
(-0.0724045360070734 0.125414020948261 684.621331004371)
(-0.0613614585896529 0.106402644896416 682.957671249279)
(0.233430083070756 0.404278513541232 685.501587132258)
(0.198038312512367 0.342996448454932 684.91592353489)
(0.170343554465919 0.294963598906774 683.159838563303)
(0.107668615171781 0.186454071355859 685.371589954934)
(0.0932646317872883 0.161532765359256 684.818465272589)
(0.0794366638915974 0.137436412366625 683.10430242799)
(0.0834990772307958 0.144599337560839 685.130755623572)
(0.0732920402216493 0.126978372036805 684.620973597919)
(0.0620093962425364 0.107345899549472 682.957571873476)
(0.466511209888179 -1.5029912677925e-06 685.501628267117)
(0.393311863994389 -1.26910308407243e-07 684.917905651084)
(0.339087693130602 -1.67810330753082e-06 683.159176174624)
(0.214055763507807 -1.4127097024398e-06 685.371038221213)
(0.182014691414608 1.95065502038613e-07 684.819039188547)
(0.156289939743362 -7.61838362124881e-07 683.102634797316)
(0.166310385081419 -1.44274943425965e-06 685.130639106151)
(0.144781721691842 1.2719927275004e-07 684.621367731362)
(0.122930983445904 -3.29436833149001e-06 682.957724417475)
(0.233430233574988 -0.404281736892457 685.501587357639)
(0.198038768597256 -0.342998061797845 684.915927503145)
(0.170347433020449 -0.294975619013736 683.159845235511)
(0.107668768477665 -0.186457253991008 685.371590177203)
(0.0932653313965731 -0.161533556689603 684.818468954657)
(0.079432236989991 -0.137449802035462 683.104307223945)
(0.083499279690952 -0.144601791357782 685.13075589269)
(0.073293056059922 -0.126975521765889 684.620975924644)
(0.0620122537103562 -0.107350463563341 682.957575669763)
(-0.105111086751168 -0.181789764617115 681.99739302566)
(-0.0563600928291608 -0.0970708817409702 681.833911805851)
(-0.0351406341345792 -0.059976295886853 685.773000342623)
(-0.0474221691011232 -0.0818100246432546 681.969571557687)
(-0.0235449217023096 -0.0402563791347888 681.835314287102)
(-0.0150053437649735 -0.0251150666830916 685.77845301534)
(-0.0357946530440837 -0.0614653172301832 681.883286925226)
(-0.0174264378109816 -0.0289647402657136 681.798716071782)
(-0.011874160862243 -0.0189480752127765 685.759534362284)
(-0.211195781347793 3.8437431043333e-05 681.996904801561)
(-0.113688751912644 8.60910487500929e-05 681.833143034441)
(-0.0742432120221791 0.000122502190625575 685.769804168084)
(-0.0963211073693667 4.11273494091831e-05 681.970188892768)
(-0.0482002924714434 8.6435674221275e-05 681.835453120824)
(-0.0346269623019783 0.000117701571580511 685.778456064094)
(-0.0721134932155455 4.45645919198943e-05 681.883233914901)
(-0.0347226453358865 0.000111900553252889 681.798545541467)
(-0.0241873692856867 0.000149880872910741 685.758776279261)
(-0.10515336714283 0.181882069040669 681.997299137162)
(-0.0564616402385442 0.0973133578357967 681.833754282464)
(-0.0352569016774118 0.0603012986296795 685.772876444509)
(-0.0474746275368018 0.081923815261231 681.969510074476)
(-0.0236773979253009 0.0405385271583201 681.835242577038)
(-0.0151583327558392 0.0254961493382133 685.778435489089)
(-0.0358213331304439 0.061559250386665 681.883249726473)
(-0.0174960298474489 0.0292180577181263 681.798669615381)
(-0.011936613005137 0.0192609604658984 685.759510340875)
(0.10530364191804 0.182962729016525 681.997113793988)
(0.0561880819362621 0.0985609047120681 681.833382267478)
(0.0361398890005043 0.0643002347998976 685.77006933711)
(0.0477879439940646 0.0834087544842131 681.97047287362)
(0.0234070615075064 0.0417789621416312 681.835918538282)
(0.0162730353516501 0.0297952769972227 685.778852520527)
(0.0353644691048756 0.0621809770761616 681.883316548817)
(0.0160679409210242 0.0297127146716889 681.798544943161)
(0.0105451838253345 0.0205002856696927 685.758674448561)
(0.209166355687359 7.53395153367074e-06 681.998140788175)
(0.110547770492712 2.3541528157735e-05 681.834801772633)
(0.067437304548864 5.4767596052335e-05 685.773612837148)
(0.0935252077433053 9.35016464430696e-06 681.970069632705)
(0.0445862613743213 1.87503953402615e-05 681.835645692252)
(0.0267697458506918 5.21541438379402e-05 685.778435275554)
(0.0702715174172676 1.95301045781562e-05 681.883544946275)
(0.032149678424041 5.83869586630213e-05 681.79892240592)
(0.0203644302125588 0.000103585668158845 685.759549056269)
(0.105341460046142 -0.182949475548336 681.997124774964)
(0.0562654890208889 -0.0985053077992488 681.833414515611)
(0.0362194394188684 -0.0641817078012966 685.77012654148)
(0.0478238710782846 -0.0833866151004897 681.970497920761)
(0.0234796247566321 -0.0417186777376243 681.83599427546)
(0.0163311950110697 -0.0296522081808602 685.778932797774)
(0.03538011440688 -0.0621120976906709 681.883324719331)
(0.0161018724962236 -0.029532343481655 681.798550990419)
(0.0105937661439129 -0.0202737786789234 685.758669586942)
(-0.0198778483835427 -0.0337980391433105 695.957718671273)
(-0.00808149426878163 -0.0137298175902943 695.963072399458)
(-0.00903407862054266 -0.0132261259596563 695.969417400736)
(-0.0463145062429172 0.000139156611928787 695.953168140099)
(-0.0243277917541883 0.000113741555022196 695.963682072863)
(-0.0173278437413871 0.000225000890477797 695.971178616596)
(-0.0200406850181991 0.0341649416693209 695.957619713217)
(-0.00833540262377959 0.0142027645388195 695.963078704362)
(-0.00912075824999552 0.0136988351049414 695.96948916942)
(0.0220690906254549 0.040054606864225 695.953111656911)
(0.0111979518941975 0.0208140083246754 695.963844582019)
(0.00613362791356338 0.0138479461816511 695.971019866794)
(0.0369231249845417 3.89339350097475e-05 695.958197783941)
(0.0128621088462202 1.14880906685744e-05 695.962964644045)
(0.0132693899878492 0.000170930472304448 695.969056082816)
(0.0221467907649845 -0.0399096133342089 695.953109978721)
(0.0112453807759133 -0.0206706684329325 695.963883820101)
(0.00614752452328188 -0.0134023601711053 695.970987663432)
(-3.15097659942643e-05 0.00167186234547511 709.239913407108)
(0.00275208763614646 0.00647471208491494 709.246845911964)
(-5.65774646418527e-05 0.00231404680685191 709.257217836686)
(-0.00948658685409874 0.000183719551152556 709.236575137528)
(-0.00231348602357859 0.000192440540347711 709.246430953773)
(-0.00313003791895324 0.000227260329649842 709.257518071537)
(-0.000112413402681547 -0.00128029806082386 709.239896866111)
(0.00266130640734855 -0.00606834261992655 709.24686603879)
(-0.000105931151315064 -0.00186688874859139 709.257223576479)
(0.00304699949895439 0.00774150480342174 709.236493808303)
(-0.000674420066366081 0.00141041038154844 709.246453855203)
(-0.000690755965804657 0.00185867316725362 709.257625462485)
(-0.00360368953386247 0.000125197903202574 709.239981659963)
(-0.00927067116102405 0.000124016741760759 709.24672538646)
(-0.0043400639018342 0.000182327231216692 709.257220477418)
(0.00309882210629965 -0.00746363989552054 709.23648026981)
(-0.000628608244259463 -0.00110485159256176 709.246457364315)
(-0.000656153458958541 -0.00146108875355131 709.257642786364)
(-0.0180762186598882 -0.030264421404567 724.068903045334)
(-0.00968599029925186 -0.0156986809232889 724.077159861166)
(-0.00551206211740184 -0.00779233488417078 724.088218690399)
(-0.0200238786008762 0.000126645790352053 724.072485151597)
(-0.00526482669392829 0.000133645004105584 724.076161342827)
(-0.0075917537094359 0.000138802300775588 724.08583700275)
(-0.0181359788861927 0.0305072932976464 724.068913982157)
(-0.00974805517574674 0.0159498029469367 724.077175929609)
(-0.00552573625039899 0.00806365758381577 724.088215937584)
(0.00866312493049447 0.0168014384955539 724.072545686737)
(0.00113987667045842 0.0038595370614989 724.076239383088)
(0.00223957250419941 0.00582571103313843 724.085942722526)
(0.0337987126571007 6.97194835426231e-05 724.068839507476)
(0.0169428245994026 7.18321307906955e-05 724.077080416357)
(0.00805072741961099 0.000124281407848306 724.088258766394)
(0.00868184220694306 -0.0165803930013349 724.072554407956)
(0.00114585570488822 -0.00360247559745114 724.076251612074)
(0.00224155035565743 -0.00555044006593579 724.08595957685)
(0.0260213231792897 0.0467107447681406 740.784298236935)
(0.0149857045839181 0.0275478531415014 740.784291928895)
(0.0067283548496392 0.0136219089894069 740.80070030304)
(0.0235109094455772 0.000146123855646142 740.781024736826)
(0.011113093329765 0.000148043747627168 740.786570821731)
(0.00605969969832135 0.000150952777012385 740.798413976732)
(0.0260008379142962 -0.0464266890136672 740.784305568981)
(0.0149604128941047 -0.0272626056147849 740.784296764991)
(0.00672500607324239 -0.0133191716540516 740.800702258762)
(-0.0132931178189899 -0.0210926485209586 740.780996567895)
(-0.00711975874248846 -0.0103736419420023 740.786512220886)
(-0.00464303917437728 -0.00608072330725184 740.798381239138)
(-0.0549001856009038 0.000124149369080965 740.784253418703)
(-0.0328013997738239 0.000120551571233736 740.784262874084)
(-0.0166270909677451 0.000148462253423348 740.800679701637)
(-0.0132931744331663 0.0213846838946779 740.780991737251)
(-0.00712014844087713 0.0106701780636214 740.786500254219)
(-0.00464884911230219 0.00639243347005059 740.798372499919)
(-0.0491361949413655 -0.0836408656559998 760.168666015925)
(-0.0307304887621124 -0.0515826890277359 760.172898196393)
(-0.0127176522328081 -0.019991854916437 760.171548720564)
(-0.0427746267826694 0.000132424460644151 760.169579544977)
(-0.0203844178114819 0.000134818139806314 760.166736951374)
(-0.0103531701918267 0.000141528153094627 760.164924423464)
(-0.0491603898292355 0.0838948304757535 760.168680430667)
(-0.0307481175702426 0.0518528978756486 760.172909580695)
(-0.0127147650987517 0.0202872545367867 760.171568837669)
(0.0198513943723512 0.0361999430936813 760.169626429797)
(0.00855728332574563 0.0166685374888825 760.166694375474)
(0.00350880360651721 0.0080276023206493 760.164778064518)
(0.0956418519574623 0.000105655868154047 760.168584146304)
(0.0586200666076211 0.000119479523675326 760.172833769264)
(0.0222009625458819 0.000150623655516808 760.171434113396)
(0.0198369507102814 -0.0359105708211341 760.169633301208)
(0.0085296493512774 -0.0163513953151898 760.166685021912)
(0.00348767499836426 -0.00770795328003538 760.164754846606)
(0.075858283830957 0.133451032860462 785.007631109788)
(0.0440461455266142 0.0781447188227812 785.037183043548)
(0.0169438201252411 0.0314767616552471 785.036173938273)
(0.0519927906861274 0.000131381741413902 784.991178839237)
(0.0190959641980946 0.000131769793923746 785.01909641875)
(0.00614485290911944 0.000143490300202056 785.036680749391)
(0.0758743942643186 -0.133182677421349 785.007648407278)
(0.0440444732752478 -0.0778780813396893 785.037193266577)
(0.0169508875000528 -0.0311826023699311 785.036187462529)
(-0.0275488524093407 -0.0458644140781858 784.991069692667)
(-0.01112596446995 -0.0174177431021865 785.018948927643)
(-0.00476414064925386 -0.00624475668740712 785.036507844584)
(-0.154856691923061 0.000147880779452924 785.007540002246)
(-0.0910910931309128 0.000131081847101895 785.037131811916)
(-0.0372348257060662 0.000153395651722371 785.036109510141)
(-0.02756111536332 0.0461474958667561 784.991049408831)
(-0.011142528059818 0.0177091541286736 785.018921484689)
(-0.0047784972882144 0.00655626975165485 785.036475214515)
(0.0127632769408478 0.0236689793553831 813.388663471887)
(-0.0131852030793997 -0.021295911741572 813.449515179421)
(-0.00946551991132902 -0.0148208571852795 813.503187682831)
(0.014411062647538 0.000105143588950406 813.431238153361)
(-0.0204750793769986 0.000105889102330314 813.472876611657)
(-0.0164842552540141 0.00010845065359119 813.507348985969)
(0.0127703211453937 -0.023454967365248 813.388675300905)
(-0.0131810665834618 0.0215118236261363 813.449524783471)
(-0.00946259999147848 0.0150438764047113 813.503198788243)
(-0.00840058892249926 -0.0130896267267844 813.431114408)
(0.00902512267659563 0.0171017628712661 813.472761300055)
(0.00700139599204986 0.0136304867835324 813.5072436332)
(-0.0279624103876699 0.000112845075094541 813.388600359634)
(0.0239359091104213 0.000111277275766005 813.44946391362)
(0.0164322713605406 0.000113906043393305 813.503129111511)
(-0.00840501431631294 0.0133070530520213 813.431091548037)
(0.00901898994562981 -0.0168798948882112 813.472739918857)
(0.00699520732793553 -0.0134032313008439 813.507224301605)
(0.0303981155430418 0.0541704806605793 852.279962358693)
(0.0354661453415174 0.0629489496866013 852.167993159716)
(0.0153873359405391 0.028197750925697 852.045212785895)
(0.0371964040369961 0.000104353096275808 852.214539628842)
(0.0405689758945125 0.000105185704684842 852.127297184488)
(0.0199522839854022 0.000107681099956947 852.046886899208)
(0.0304034386400959 -0.0539590014079293 852.279971475624)
(0.0354704234684728 -0.0627355542262164 852.168001634673)
(0.0153903310919859 -0.0279781493627895 852.045220442753)
(-0.0197742832499636 -0.0328067145457056 852.214456357976)
(-0.021477779259104 -0.0357463976540553 852.127224209173)
(-0.0111912967759377 -0.0178974901083151 852.046821754055)
(-0.0631817900481471 0.000110135157418048 852.279912915155)
(-0.0733297411182753 0.000110200968988763 852.167947108769)
(-0.0332267466114157 0.000112270644540758 852.045171750421)
(-0.0197777404406272 0.0330209697248172 852.214441056683)
(-0.0214827411255643 0.0359649420352709 852.127210769309)
(-0.0111953697987795 0.0181196046360376 852.046809935803)
(-0.268794152090989 -0.465602983226077 682.789725230205)
(-0.12503200639904 -0.216600126828339 682.569943667545)
(-0.0967674106820278 -0.167645220849916 682.246886874636)
(-0.537366525869713 -1.55879845207849e-06 682.789926403155)
(-0.250709703296166 -1.61633666886441e-06 682.570248051747)
(-0.193897051342227 -1.6068556354929e-06 682.247020183657)
(-0.268794104623783 0.465599673421241 682.789724933453)
(-0.125032023387685 0.216597044376367 682.56994331957)
(-0.0967674128464395 0.167641974005288 682.246886686751)
(0.268714147699833 0.465390023580463 682.789931481982)
(0.12538608340466 0.217137658122497 682.570253401539)
(0.0969800660848718 0.167936930040603 682.247023795335)
(0.537651814987231 -1.62720606762065e-06 682.789729926684)
(0.250125008974986 -1.56965811348388e-06 682.569948350998)
(0.193597973964932 -1.63581673416489e-06 682.246889816633)
(0.268714226260919 -0.465393302399204 682.789931325257)
(0.125386073973655 -0.217140901070053 682.570253342177)
(0.096980072831393 -0.167940176242512 682.247023885257)
(-19.8147575678432 -34.3201793807559 9.92303206133537)
(-9.5979074326235 -16.6239871188123 20.3674799935451)
(-8.76612875219992 -15.1834285188497 87.6015801889924)
(-24.7028170698001 -42.7869086940336 95.0934387657594)
(-26.374300886054 -45.6818836183281 118.177273015424)
(-26.2727670362283 -45.5057027231148 124.840500074601)
(-25.8168400517397 -44.7160451179628 128.29443437232)
(-24.7240195086506 -42.8236120273872 159.636296651963)
(-4.75064638499764 -8.22868736922769 189.264664942306)
(68.2313785794691 118.180073688777 142.612611970386)
(149.304106041357 258.602286094392 97.9853013750415)
(121.519269211893 210.477568439178 123.822304006356)
(79.0134270818588 136.85528710881 82.5180322191417)
(24.5511925060527 42.5239173032175 31.3248995326104)
(2.01875072713221 3.49657930877804 3.59838688946265)
(-18.3609335745302 -31.8022822230393 40.2953634246476)
(-8.37453697346869 -14.5049318064056 360.000808123826)
(-40.9311531520098 -70.8944934938955 432.705988054866)
(-13.9476704248314 -24.15809694209 375.833194880847)
(-8.24203423284379 -14.275832094738 325.109225273961)
(-1.45821197834577 -2.52591363569228 295.256136836789)
(7.30613922004553 12.65444038322 325.423985526937)
(12.4417107378261 21.5494386088147 406.983003809806)
(-3.23664003856177 -5.60643045337121 413.49727190339)
(32.5734540357965 56.4184721096286 340.311436551917)
(113.850170954405 197.194153155628 141.247576356406)
(111.654325360091 193.390949962455 158.671809382146)
(60.7793906796913 105.272984324541 110.266643429219)
(24.2072771178684 41.9282317043853 52.5887579145461)
(3.40096115272474 5.89063725089475 11.1703835408657)
(53.4470543760438 92.5730240788203 205.690836561714)
(202.864969544933 351.372908969414 1120.58641355549)
(19.3234086050294 33.4702291734125 1112.37550508996)
(-92.6222944129879 -160.427271437127 828.387340718617)
(-58.129466669046 -100.683653136393 675.350500735128)
(-12.5350342513992 -21.7114369514656 594.99559532785)
(9.65042462077467 16.7159366435826 663.156161669975)
(6.212743294257 10.7613190631499 746.616927752972)
(-8.60148745783966 -14.8984104753486 776.110849187519)
(-1.98537660610625 -3.43883587378071 751.956806443471)
(80.220200231127 138.944871961513 435.753661680769)
(124.98649518078 216.482780255153 260.369714822031)
(70.4446050525852 122.013589549716 171.29736468264)
(32.3560087787982 56.0422361463819 88.5419045389075)
(5.68086235413676 9.83953666139678 25.9028880616786)
(345.137421717205 597.795643797626 899.3555375228)
(543.590409365282 941.526400711437 1608.63736899247)
(195.435333820864 338.504180882665 1655.96173412875)
(-64.6196689866831 -111.92163396886 1421.24559598881)
(-93.2633218419391 -161.537071720406 1103.69004820325)
(-14.5318298999729 -25.1715816142248 935.048773241687)
(49.1317855634198 85.0985439605437 1008.10903990279)
(35.1507738824858 60.8829573960416 1083.66781008649)
(1.44315898217603 2.49961616494933 1180.66977202061)
(-14.2649653538255 -24.7065886295774 1169.9918967517)
(15.5388688259177 26.91494649295 850.381390218356)
(76.3552883340945 132.251056347696 412.17164068688)
(67.8141265914735 117.457421933153 272.071239060295)
(34.0513057082451 58.9785547425451 136.498216924313)
(7.65089517538692 13.2517311173356 45.9610023335097)
(-20.6861829066524 2.35694317114446e-06 7.61367909385853)
(2.79549350709859 3.49935096691444e-06 108.108603212734)
(-17.0881392744769 4.25227644632465e-06 179.93226411102)
(-62.3220828530169 1.12426996823825e-06 166.128381462693)
(-56.8037079620525 -2.45338435834918e-06 155.365590152573)
(-50.7765971321467 -6.36340734959209e-06 139.374720694986)
(-45.4020346202936 -1.28237921901685e-05 135.028330047907)
(-53.5185196597536 -2.93078138177394e-06 140.413455401446)
(-35.2227790929564 -2.07054500681238e-05 151.766755734302)
(99.9018496487849 -2.0047311546141e-05 112.908082854511)
(295.722353574257 -9.28458523226401e-06 82.2476013936314)
(241.611378716504 -4.30710044040935e-06 118.058979644064)
(158.114673921581 -1.27108718999486e-06 79.8820520433502)
(50.4916665031792 5.04899110880433e-08 31.6650934130452)
(4.2205493095088 6.17718338298504e-09 3.75084579854692)
(27.5210783931963 -1.83945364471792e-06 57.803524623117)
(108.530370761939 9.60759856481103e-06 385.588110179561)
(10.4784284456509 1.42554194058371e-05 497.589380886207)
(-46.30270063632 6.24384179911371e-06 460.163779903065)
(-25.5871447585718 9.56138776064837e-07 375.9476027415)
(0.397023288289786 -1.10115434463974e-05 323.694986372601)
(15.0060266260526 -1.95729456099253e-05 338.377467726546)
(9.90079883351856 -3.6286908266433e-05 383.442253977496)
(-7.16460399201495 -5.56778700919302e-05 410.894745510722)
(86.1753961245812 -6.9488532338253e-05 341.193044493138)
(250.484053816807 -3.48563941811936e-05 117.267231229714)
(228.035064093211 -1.02245499881715e-05 152.429408610695)
(121.293027249004 -2.1131130304367e-06 107.714938618379)
(48.6656132561583 -1.12428245788834e-07 52.1688865927563)
(7.21749813002706 4.74883244809794e-09 11.7104178902865)
(200.752389807024 -2.62123261332722e-06 267.282351595332)
(237.838170075728 5.09851135592662e-05 978.617062841946)
(16.2215952446508 4.24676424258679e-05 971.405452862362)
(-162.545001480589 4.41703124106706e-05 818.72154317111)
(-103.216045094401 5.77249748905395e-06 673.942578076594)
(-13.0446495579093 2.73737094445527e-05 617.950978642964)
(-8.06386380760913 7.35917128011031e-05 651.558805017058)
(-14.5658611389214 -2.34909124819992e-05 721.991246639181)
(-34.6596936369353 -7.71613424634695e-05 768.352005855141)
(-0.0674096014216281 -0.000112637391975011 789.536780549918)
(186.802372535437 -7.61758993665414e-05 438.544664854304)
(264.323515401733 -2.03030471092501e-05 254.150078332456)
(141.362765786478 -4.01588617783521e-06 170.051906899974)
(63.4250711901576 -6.04510356879803e-07 87.65986324598)
(11.6243685115956 4.2287069385511e-08 26.5198407187106)
(546.597243115302 6.38629776148586e-05 869.403020041972)
(778.131691362089 8.15558892110193e-05 1540.22625243328)
(202.190490922199 6.57215265597352e-05 1429.49413920387)
(-194.466283544783 7.65813496680314e-05 1300.93587623883)
(-186.931195075046 9.34096903414715e-05 1037.26926041971)
(-19.171754983914 0.000259176544204882 916.02928580874)
(100.077857853258 5.00724572467251e-05 961.819609083379)
(76.0308455525316 -6.14151978910145e-06 1048.54448937242)
(16.854217022522 -6.04039499047888e-05 1166.18713127709)
(15.4216606979254 -1.8246653520632e-05 1211.59894278753)
(72.9130184509775 -6.33577925487131e-05 919.658868462028)
(168.538357751033 -3.52645192617378e-05 426.652006563709)
(137.430655175745 -7.69280414976963e-06 273.163074413948)
(67.157007218785 -1.833627693682e-06 135.696500180625)
(14.773784875861 -1.1364257600224e-07 46.1892005778038)
(-19.814759640168 34.3201809862444 9.92302483551709)
(-9.59790467964163 16.6239814288092 20.367440053795)
(-8.76614227380158 15.1834386007763 87.6014968943197)
(-24.7028359991448 42.7869006958421 95.093389041522)
(-26.374313813484 45.6818788924014 118.177245525022)
(-26.2727635713237 45.5057051230804 124.84047596464)
(-25.8168350356718 44.7160455653173 128.294405476434)
(-24.7240398542914 42.8236177409729 159.636209286708)
(-4.75069316674421 8.22874287299236 189.264545151645)
(68.2313411890511 -118.180024502912 142.612526080249)
(149.304094584341 -258.602269995344 97.9852634821067)
(121.519262860485 -210.477557154382 123.822287311032)
(79.0134242610015 -136.85528169549 82.5180213257311)
(24.551191265052 -42.5239151835243 31.3248961744225)
(2.01875065991001 -3.49657918663254 3.59838670413829)
(-18.36096577359 31.8023111907038 40.2953965057167)
(-8.3745401391562 14.5049565844514 360.000683247283)
(-40.9311173423994 70.8944592316756 432.705881155156)
(-13.9476605562258 24.1580659865526 375.833075528884)
(-8.24204949228538 14.2758291573419 325.109123184886)
(-1.45822100786324 2.52591338982293 295.256061887252)
(7.30612387080958 -12.6544191106932 325.423894125819)
(12.4416667809662 -21.549377508766 406.982848098865)
(-3.23668164166134 5.60647107084489 413.497109800885)
(32.5734454145031 -56.4184927585735 340.311302328582)
(113.850179363443 -197.194181480116 141.247495021218)
(111.654322313193 -193.390948214596 158.671787329719)
(60.7793893680455 -105.272984069455 110.266635837017)
(24.2072769749954 -41.9282320876534 52.5887560463778)
(3.40096108368799 -5.89063719512899 11.170383115017)
(53.4470407174871 -92.5730130650734 205.690814599649)
(202.864901865265 -351.372731288829 1120.58628839279)
(19.3234360754237 -33.4701478857256 1112.37536571846)
(-92.6223353962592 160.427242246308 828.387232159308)
(-58.1294762479924 100.683613306385 675.350361641496)
(-12.5350286829863 21.7114085163222 594.995465396001)
(9.65045570547805 -16.7159058393163 663.155968545978)
(6.21273600366867 -10.7612589800685 746.616684240626)
(-8.60152339532612 14.8984488490356 776.11060253581)
(-1.98538870985386 3.43883904571703 751.956594989023)
(80.2201929942895 -138.944907314216 435.7534600166)
(124.986492382307 -216.482791787659 260.369658071902)
(70.4446035026366 -122.013591554844 171.297354717757)
(32.356008498869 -56.0422372194762 88.5419023262658)
(5.6808621595096 -9.83953686607079 25.9028875511599)
(345.137435281537 -597.795651629391 899.355596441461)
(543.590287460777 -941.526154233349 1608.63728744039)
(195.435255194062 -338.504009666383 1655.96160987101)
(-64.619529636752 111.921741959383 1421.24548773248)
(-93.2633694597033 161.537094196698 1103.68987772419)
(-14.5318896084562 25.1714632112003 935.048568595926)
(49.1317258275204 -85.0984828748116 1008.10884755885)
(35.1507130295398 -60.8828719687509 1083.66759147681)
(1.44309332381547 -2.49952959406482 1180.66950859167)
(-14.2648751553922 24.7065089243028 1169.99174659053)
(15.5389778416761 -26.9150622592044 850.381267019675)
(76.3553146904675 -132.251119212445 412.17156476197)
(67.8141302980104 -117.457436479734 272.071228099487)
(34.0513057913141 -58.9785585221691 136.498214200956)
(7.65089491417004 -13.251731647276 45.9610017569606)
(10.342987663254 17.9146147801499 7.61364394315643)
(-1.39788608806551 -2.42109039758048 108.10897411356)
(8.54404129633985 14.7988147141662 179.932427101897)
(31.1610815437563 53.9725911779801 166.128681101579)
(28.4019200395662 49.1935259487288 155.365895857768)
(25.3883710591981 43.9738589630186 139.374990330351)
(22.7011193887994 39.3192615583473 135.028481953758)
(26.759228309326 46.3482527126199 140.41401217773)
(17.6115024542958 30.5035369576926 151.767453441301)
(-49.9508141792341 -86.5177970911294 112.908846092234)
(-147.861197445182 -256.103316302838 82.2478866147839)
(-120.805728565948 -209.241759508068 118.059114566629)
(-79.0573557625553 -136.93138835686 79.8820946126322)
(-25.2458407952246 -43.7270794224029 31.6651011912238)
(-2.11027584045608 -3.65510482652592 3.7508472359856)
(-13.7609442832874 -23.8346527587825 57.8039333816246)
(-54.2653441949671 -93.9901185831783 385.588549868397)
(-5.23914786948881 -9.07419869757821 497.589975505799)
(23.1512561472285 40.0992426611445 460.164745284945)
(12.7935722802644 22.1591107360112 375.948574916841)
(-0.198473266785266 -0.343858715924511 323.695805863467)
(-7.50290387730445 -12.9957280317399 338.378088847493)
(-4.95026422519018 -8.57485808555009 383.443320249889)
(3.58269132062534 6.20419564460589 410.895892282772)
(-43.0869569850048 -74.6303888890271 341.194484608588)
(-125.241606728824 -216.925609025481 117.267892918111)
(-114.017482296451 -197.48428495728 152.429606081491)
(-60.6465073233561 -105.042879649305 107.715005864785)
(-24.3328103726096 -42.1456671678617 52.1688992901301)
(-3.60875008466548 -6.25053849464214 11.710421445994)
(-100.376647673141 -173.857494956464 267.283036805971)
(-118.919766146341 -205.974327388433 978.616230197801)
(-8.1113423030603 -14.0485977473717 971.40737835887)
(81.2722878473989 140.768394215562 818.72331581075)
(51.6081621475875 89.388132643736 673.944172231449)
(6.52217176861708 11.2974229801068 617.95241763719)
(4.03119714203844 6.98392520144706 651.560272920698)
(7.28302244914484 12.6141374193955 721.992804840223)
(17.3305808508732 30.0158198201057 768.353333849196)
(0.0350438248155744 0.0582198828147799 789.537986180699)
(-93.4001336884326 -161.775439429903 438.546261059711)
(-132.16153528521 -228.9109369313 254.150525403032)
(-70.6813410950202 -122.423762050591 170.052017177975)
(-31.7125262148498 -54.9277222973031 87.659886734102)
(-5.81218385690939 -10.0669988000942 26.5198457133426)
(-273.299131968161 -473.36712241561 869.403162625504)
(-389.066522620099 -673.881900298195 1540.2247913269)
(-101.096596915992 -175.103259401898 1429.49725640746)
(97.231545100367 168.410664107208 1300.93964481084)
(93.4645180720875 161.886989008028 1037.27185634292)
(9.58394188059041 16.6045022735103 916.031180176272)
(-50.0396386148659 -86.6701815016049 961.821090193673)
(-38.015697177118 -65.8451916544993 1048.54606784496)
(-8.42679282722213 -14.5969120727306 1166.1881431884)
(-7.71074791482527 -13.3558715046312 1211.59978248511)
(-36.4559011979704 -63.1448541170011 919.660440656412)
(-84.2687285147693 -145.958512437685 426.652344013803)
(-68.7152047954951 -119.018371190432 273.163154438033)
(-33.5784711051875 -58.1596544928779 135.696522864087)
(-7.38688792651403 -12.794468795179 46.1892048493548)
(39.6295167730639 -9.82906270325179e-07 9.92307555410679)
(19.19582541263 -4.568945965138e-07 20.3677313579543)
(17.5322073750117 -6.66366379273997e-06 87.6021326163378)
(49.4059646834662 -2.03861640988598e-05 95.093886283822)
(52.748843117181 -1.35496227630884e-05 118.17753033778)
(52.5454922295445 4.20511608106458e-06 124.840752647715)
(51.6336979760384 4.57136977015367e-06 128.294719230675)
(49.4482258978583 -1.47594064072034e-05 159.637162181258)